 Gaussian 09, Revision A.02,
 Gaussian 09:  EM64L-G09RevA.02 11-Jun-2009

 --------------------------------
 #p b3lyp/6-31+g(d,p) force nosym
 --------------------------------

 -------------
 c2h6 molecule
 -------------
 Symbolic Z-matrix:
 Charge =  0 Multiplicity = 1

                          Input orientation:
 ---------------------------------------------------------------------
 Center     Atomic      Atomic             Coordinates (Angstroms)
 Number     Number       Type             X           Y           Z
 ---------------------------------------------------------------------
      1          6           0        0.000000    0.000000    0.000000
      2          6           0        0.000000    0.000000    1.669667
      3          1           0        0.535873    0.000000   -0.947894
      4          1           0       -0.175038   -1.066333    0.021530
      5          1           0       -1.005545    0.405761    0.055590
      6          1           0       -1.087397    0.003292    1.688201
      7          1           0        0.578505   -0.929492    1.693445
      8          1           0        0.224571    0.386264    2.678356
 ---------------------------------------------------------------------

 SCF Done:  E(RB3LYP) =  -79.7213784533     A.U. after   10 cycles

 Alpha  occ. eigenvalues --  -10.19650 -10.19369  -0.76211  -0.62867  -0.47531
 Alpha  occ. eigenvalues --   -0.43572  -0.36671  -0.32830  -0.29005
 Alpha virt. eigenvalues --    0.00769   0.01007   0.04941   0.05745   0.06696
 Alpha virt. eigenvalues --    0.07782   0.08738   0.10663   0.14724   0.15751
 Alpha virt. eigenvalues --    0.19811   0.21576   0.25743   0.30032   0.33687

 Mulliken atomic charges:
              1
     1  C   -0.453727
     2  C   -0.425994
     3  H    0.153502
     4  H    0.148282
     5  H    0.150075
     6  H    0.132554
     7  H    0.141881
     8  H    0.153427
 Sum of Mulliken atomic charges =   0.00000

 Dipole moment (field-independent basis, Debye):
    X=             -0.2578    Y=             -0.5332    Z=             -0.0229  Tot=              0.5927
 Quadrupole moment (field-independent basis, Debye-Ang):
   XX=            -15.4189   YY=            -16.3327   ZZ=            -14.7927
   XY=             -1.0037   XZ=             -0.7098   YZ=              0.2171

 Optimization completed.
    -- Stationary point found.
 Normal termination of Gaussian 09 at Wed May 26 19:13:35 2021.
