 Gaussian 09, Revision A.02,
 Gaussian 09:  EM64L-G09RevA.02 11-Jun-2009

 --------------------------------
 #p b3lyp/6-31+g(d,p) force nosym
 --------------------------------

 -------------
 c2h6 molecule
 -------------
 Symbolic Z-matrix:
 Charge =  0 Multiplicity = 1

                          Input orientation:
 ---------------------------------------------------------------------
 Center     Atomic      Atomic             Coordinates (Angstroms)
 Number     Number       Type             X           Y           Z
 ---------------------------------------------------------------------
      1          6           0        0.000000    0.000000    0.000000
      2          6           0        0.000000    0.000000    1.696292
      3          1           0        0.540126    0.000000   -0.946312
      4          1           0       -0.169671   -1.071847    0.027625
      5          1           0       -1.003285    0.409431    0.066225
      6          1           0       -1.087380    0.003253    1.708723
      7          1           0        0.581046   -0.926783    1.713012
      8          1           0        0.224575    0.386298    2.705356
 ---------------------------------------------------------------------

 SCF Done:  E(RB3LYP) =  -79.7206590437     A.U. after   10 cycles

 Alpha  occ. eigenvalues --  -10.19769 -10.19573  -0.75780  -0.62976  -0.47403
 Alpha  occ. eigenvalues --   -0.43433  -0.36709  -0.32823  -0.29000
 Alpha virt. eigenvalues --    0.00568   0.00944   0.04954   0.05784   0.06671
 Alpha virt. eigenvalues --    0.07568   0.08708   0.10465   0.14732   0.15631
 Alpha virt. eigenvalues --    0.19803   0.21523   0.25615   0.29776   0.33279

 Mulliken atomic charges:
              1
     1  C   -0.453932
     2  C   -0.428962
     3  H    0.153780
     4  H    0.147416
     5  H    0.151692
     6  H    0.133115
     7  H    0.143531
     8  H    0.153359
 Sum of Mulliken atomic charges =   0.00000

 Dipole moment (field-independent basis, Debye):
    X=             -0.2583    Y=             -0.5354    Z=             -0.0218  Tot=              0.5948
 Quadrupole moment (field-independent basis, Debye-Ang):
   XX=            -15.4355   YY=            -16.3600   ZZ=            -14.7596
   XY=             -1.0283   XZ=             -0.7238   YZ=              0.2018

 Optimization completed.
    -- Stationary point found.
 Normal termination of Gaussian 09 at Wed May 26 19:13:24 2021.
