 Gaussian 09, Revision A.02,
 Gaussian 09:  EM64L-G09RevA.02 11-Jun-2009

 --------------------------------
 #p b3lyp/6-31+g(d,p) force nosym
 --------------------------------

 -------------
 c2h6 molecule
 -------------
 Symbolic Z-matrix:
 Charge =  0 Multiplicity = 1

                          Input orientation:
 ---------------------------------------------------------------------
 Center     Atomic      Atomic             Coordinates (Angstroms)
 Number     Number       Type             X           Y           Z
 ---------------------------------------------------------------------
      1          6           0        0.000000    0.000000    0.000000
      2          6           0        0.000000    0.000000    1.537459
      3          1           0        1.015632    0.000000   -0.402731
      4          1           0       -0.319358   -1.020372   -0.276487
      5          1           0       -0.786904    0.610610   -0.442365
      6          1           0       -1.053657    0.018155    1.840605
      7          1           0        0.381361   -0.921812    1.993833
      8          1           0        0.558760    0.824916    1.989879
 ---------------------------------------------------------------------

 SCF Done:  E(RB3LYP) =  -79.8318770092     A.U. after    9 cycles

 Alpha  occ. eigenvalues --  -10.17902 -10.17795  -0.75393  -0.61770  -0.44651
 Alpha  occ. eigenvalues --   -0.42669  -0.37157  -0.34738  -0.33079
 Alpha virt. eigenvalues --    0.01685   0.03012   0.05170   0.05534   0.08010
 Alpha virt. eigenvalues --    0.08821   0.09100   0.14263   0.15039   0.20011
 Alpha virt. eigenvalues --    0.20659   0.23951   0.25316   0.29326   0.32913

 Mulliken atomic charges:
              1
     1  C   -0.447852
     2  C   -0.429818
     3  H    0.149186
     4  H    0.142739
     5  H    0.153053
     6  H    0.141832
     7  H    0.144831
     8  H    0.146028
 Sum of Mulliken atomic charges =  -0.00000

 Dipole moment (field-independent basis, Debye):
    X=             -0.0632    Y=             -0.1603    Z=             -0.0086  Tot=              0.1725
 Quadrupole moment (field-independent basis, Debye-Ang):
   XX=            -14.7640   YY=            -15.4110   ZZ=            -15.8329
   XY=             -0.1397   XZ=              0.1628   YZ=             -0.1459

 Optimization completed.
    -- Stationary point found.
 Normal termination of Gaussian 09 at Wed May 26 19:17:37 2021.
