 Gaussian 09, Revision A.02,
 Gaussian 09:  EM64L-G09RevA.02 11-Jun-2009

 --------------------------------
 #p b3lyp/6-31+g(d,p) force nosym
 --------------------------------

 -------------
 c2h6 molecule
 -------------
 Symbolic Z-matrix:
 Charge =  0 Multiplicity = 1

                          Input orientation:
 ---------------------------------------------------------------------
 Center     Atomic      Atomic             Coordinates (Angstroms)
 Number     Number       Type             X           Y           Z
 ---------------------------------------------------------------------
      1          6           0        0.000000    0.000000    0.000000
      2          6           0        0.000000    0.000000    1.564964
      3          1           0        0.532388    0.000000   -0.949585
      4          1           0       -0.201115   -1.043853   -0.005914
      5          1           0       -1.012001    0.395646   -0.013964
      6          1           0       -1.086853    0.003869    1.616154
      7          1           0        0.553247   -0.947038    1.630434
      8          1           0        0.238020    0.408942    2.555389
 ---------------------------------------------------------------------

 SCF Done:  E(RB3LYP) =  -79.7281435424     A.U. after   10 cycles

 Alpha  occ. eigenvalues --  -10.19056 -10.18508  -0.77924  -0.62485  -0.47808
 Alpha  occ. eigenvalues --   -0.44137  -0.37052  -0.32849  -0.28968
 Alpha virt. eigenvalues --    0.00858   0.01824   0.04884   0.05582   0.06735
 Alpha virt. eigenvalues --    0.08655   0.08872   0.12086   0.14668   0.16349
 Alpha virt. eigenvalues --    0.20039   0.21628   0.26241   0.31176   0.35260

 Mulliken atomic charges:
              1
     1  C   -0.453920
     2  C   -0.412707
     3  H    0.152632
     4  H    0.151340
     5  H    0.143847
     6  H    0.131665
     7  H    0.134655
     8  H    0.152487
 Sum of Mulliken atomic charges =   0.00000

 Dipole moment (field-independent basis, Debye):
    X=             -0.2652    Y=             -0.5109    Z=             -0.0288  Tot=              0.5764
 Quadrupole moment (field-independent basis, Debye-Ang):
   XX=            -15.3461   YY=            -16.1721   ZZ=            -14.9253
   XY=             -0.8753   XZ=             -0.6232   YZ=              0.2941

 Optimization completed.
    -- Stationary point found.
 Normal termination of Gaussian 09 at Wed May 26 19:13:57 2021.
