 Gaussian 09, Revision A.02,
 Gaussian 09:  EM64L-G09RevA.02 11-Jun-2009

 --------------------------------
 #p b3lyp/6-31+g(d,p) force nosym
 --------------------------------

 -------------
 c2h6 molecule
 -------------
 Symbolic Z-matrix:
 Charge =  0 Multiplicity = 1

                          Input orientation:
 ---------------------------------------------------------------------
 Center     Atomic      Atomic             Coordinates (Angstroms)
 Number     Number       Type             X           Y           Z
 ---------------------------------------------------------------------
      1          6           0        0.000000    0.000000    0.000000
      2          6           0        0.000000    0.000000    1.018138
      3          1           0        0.036086    0.000000   -1.193936
      4          1           0       -0.486852   -0.862201   -0.349481
      5          1           0       -1.068893    0.028946   -0.355530
      6          1           0       -1.043511    0.000072    1.367433
      7          1           0        0.526209   -0.907991    1.369450
      8          1           0        0.019720    0.034150    2.483620
 ---------------------------------------------------------------------

 SCF Done:  E(RB3LYP) =  -79.1760132481     A.U. after   13 cycles

 Alpha  occ. eigenvalues --  -10.20905 -10.19694  -0.92373  -0.67188  -0.54417
 Alpha  occ. eigenvalues --   -0.51823  -0.44044  -0.24732  -0.18708
 Alpha virt. eigenvalues --   -0.04510  -0.01411   0.00315   0.02700   0.05272
 Alpha virt. eigenvalues --    0.08794   0.09329   0.10092   0.12208   0.15060
 Alpha virt. eigenvalues --    0.17633   0.21573   0.22930   0.31068   0.54824

 Mulliken atomic charges:
              1
     1  C   -0.319381
     2  C   -0.418976
     3  H    0.173275
     4  H    0.109775
     5  H    0.061575
     6  H    0.153516
     7  H    0.112614
     8  H    0.127602
 Sum of Mulliken atomic charges =  -0.00000

 Dipole moment (field-independent basis, Debye):
    X=             -1.3710    Y=             -1.3661    Z=             -0.8864  Tot=              2.1288
 Quadrupole moment (field-independent basis, Debye-Ang):
   XX=            -15.7345   YY=            -17.0691   ZZ=            -18.1328
   XY=              0.3742   XZ=             -0.6452   YZ=             -1.0829

 Optimization completed.
    -- Stationary point found.
 Normal termination of Gaussian 09 at Wed May 26 19:09:45 2021.
