 Gaussian 09, Revision A.02,
 Gaussian 09:  EM64L-G09RevA.02 11-Jun-2009

 --------------------------------
 #p b3lyp/6-31+g(d,p) force nosym
 --------------------------------

 -------------
 c2h6 molecule
 -------------
 Symbolic Z-matrix:
 Charge =  0 Multiplicity = 1

                          Input orientation:
 ---------------------------------------------------------------------
 Center     Atomic      Atomic             Coordinates (Angstroms)
 Number     Number       Type             X           Y           Z
 ---------------------------------------------------------------------
      1          6           0        0.000000    0.000000    0.000000
      2          6           0        0.000000    0.000000    1.733879
      3          1           0        0.543996    0.000000   -0.947516
      4          1           0       -0.167657   -1.084534    0.031783
      5          1           0       -1.001661    0.411632    0.073050
      6          1           0       -1.087504    0.003226    1.742424
      7          1           0        0.582278   -0.924341    1.746082
      8          1           0        0.224237    0.385735    2.742029
 ---------------------------------------------------------------------

 SCF Done:  E(RB3LYP) =  -79.7201579122     A.U. after   10 cycles

 Alpha  occ. eigenvalues --  -10.19934 -10.19928  -0.75122  -0.63159  -0.47120
 Alpha  occ. eigenvalues --   -0.43206  -0.36789  -0.32860  -0.28964
 Alpha virt. eigenvalues --    0.00139   0.00933   0.04980   0.05832   0.06564
 Alpha virt. eigenvalues --    0.07347   0.08667   0.10224   0.14709   0.15459
 Alpha virt. eigenvalues --    0.19870   0.21414   0.25371   0.29454   0.32719

 Mulliken atomic charges:
              1
     1  C   -0.455783
     2  C   -0.432163
     3  H    0.154678
     4  H    0.145538
     5  H    0.154049
     6  H    0.134229
     7  H    0.145966
     8  H    0.153486
 Sum of Mulliken atomic charges =  -0.00000

 Dipole moment (field-independent basis, Debye):
    X=             -0.2669    Y=             -0.5376    Z=             -0.0174  Tot=              0.6005
 Quadrupole moment (field-independent basis, Debye-Ang):
   XX=            -15.4663   YY=            -16.4082   ZZ=            -14.6772
   XY=             -1.0500   XZ=             -0.7369   YZ=              0.1698

 Optimization completed.
    -- Stationary point found.
 Normal termination of Gaussian 09 at Wed May 26 19:12:47 2021.
