 Gaussian 09, Revision A.02,
 Gaussian 09:  EM64L-G09RevA.02 11-Jun-2009

 --------------------------------
 #p b3lyp/6-31+g(d,p) force nosym
 --------------------------------

 -------------
 c2h6 molecule
 -------------
 Symbolic Z-matrix:
 Charge =  0 Multiplicity = 1

                          Input orientation:
 ---------------------------------------------------------------------
 Center     Atomic      Atomic             Coordinates (Angstroms)
 Number     Number       Type             X           Y           Z
 ---------------------------------------------------------------------
      1          6           0        0.000000    0.000000    0.000000
      2          6           0        0.000000    0.000000    1.545217
      3          1           0        0.375873    0.000000   -1.130984
      4          1           0       -0.419145   -1.352949   -0.172533
      5          1           0       -1.052303    0.259665   -0.098618
      6          1           0       -1.078480    0.001920    1.693078
      7          1           0        0.584863   -0.959597    1.701502
      8          1           0        0.136797    0.235966    2.581715
 ---------------------------------------------------------------------

 SCF Done:  E(RB3LYP) =  -79.6595847847     A.U. after   11 cycles

 Alpha  occ. eigenvalues --  -10.23282 -10.20076  -0.76779  -0.62780  -0.45943
 Alpha  occ. eigenvalues --   -0.44653  -0.35738  -0.32932  -0.25723
 Alpha virt. eigenvalues --   -0.01197   0.00318   0.04052   0.04947   0.06054
 Alpha virt. eigenvalues --    0.07571   0.08715   0.09834   0.10711   0.15717
 Alpha virt. eigenvalues --    0.19512   0.20158   0.23756   0.30476   0.36699

 Mulliken atomic charges:
              1
     1  C   -0.503643
     2  C   -0.375171
     3  H    0.185683
     4  H    0.072623
     5  H    0.155744
     6  H    0.139545
     7  H    0.150390
     8  H    0.174830
 Sum of Mulliken atomic charges =  -0.00000

 Dipole moment (field-independent basis, Debye):
    X=             -0.4560    Y=             -0.1894    Z=              0.2687  Tot=              0.5621
 Quadrupole moment (field-independent basis, Debye-Ang):
   XX=            -15.8482   YY=            -17.5526   ZZ=            -13.6025
   XY=             -0.7960   XZ=             -0.6199   YZ=             -0.3622

 Optimization completed.
    -- Stationary point found.
 Normal termination of Gaussian 09 at Wed May 26 19:11:50 2021.
