 Gaussian 09, Revision A.02,
 Gaussian 09:  EM64L-G09RevA.02 11-Jun-2009

 --------------------------------
 #p b3lyp/6-31+g(d,p) force nosym
 --------------------------------

 -------------
 c2h6 molecule
 -------------
 Symbolic Z-matrix:
 Charge =  0 Multiplicity = 1

                          Input orientation:
 ---------------------------------------------------------------------
 Center     Atomic      Atomic             Coordinates (Angstroms)
 Number     Number       Type             X           Y           Z
 ---------------------------------------------------------------------
      1          6           0        0.000000    0.000000    0.000000
      2          6           0        0.000000    0.000000    1.483975
      3          1           0        0.030493    0.000000   -1.104346
      4          1           0       -0.555970   -0.979942   -0.400345
      5          1           0       -1.103292    0.027620   -0.369793
      6          1           0       -1.056259    0.000058    1.839791
      7          1           0        0.534120   -0.922738    1.843172
      8          1           0        0.014261    0.024698    2.617879
 ---------------------------------------------------------------------

 SCF Done:  E(RB3LYP) =  -79.5574112814     A.U. after   11 cycles

 Alpha  occ. eigenvalues --  -10.21894 -10.21184  -0.79014  -0.69382  -0.50356
 Alpha  occ. eigenvalues --   -0.43794  -0.36604  -0.28654  -0.23276
 Alpha virt. eigenvalues --   -0.01915  -0.00634   0.03902   0.05138   0.06047
 Alpha virt. eigenvalues --    0.07138   0.08878   0.09532   0.12440   0.15628
 Alpha virt. eigenvalues --    0.18097   0.20915   0.23298   0.26051   0.40242

 Mulliken atomic charges:
              1
     1  C   -0.315437
     2  C   -0.469452
     3  H    0.170428
     4  H    0.056883
     5  H    0.074464
     6  H    0.140127
     7  H    0.136428
     8  H    0.206560
 Sum of Mulliken atomic charges =  -0.00000

 Dipole moment (field-independent basis, Debye):
    X=             -1.0854    Y=             -0.9302    Z=              0.4510  Tot=              1.4989
 Quadrupole moment (field-independent basis, Debye-Ang):
   XX=            -16.2982   YY=            -18.4356   ZZ=            -11.4530
   XY=             -0.1580   XZ=             -0.2063   YZ=             -0.9865

 Optimization completed.
    -- Stationary point found.
 Normal termination of Gaussian 09 at Wed May 26 19:11:18 2021.
