 Gaussian 09, Revision A.02,
 Gaussian 09:  EM64L-G09RevA.02 11-Jun-2009

 --------------------------------
 #p b3lyp/6-31+g(d,p) force nosym
 --------------------------------

 -------------
 c2h6 molecule
 -------------
 Symbolic Z-matrix:
 Charge =  0 Multiplicity = 1

                          Input orientation:
 ---------------------------------------------------------------------
 Center     Atomic      Atomic             Coordinates (Angstroms)
 Number     Number       Type             X           Y           Z
 ---------------------------------------------------------------------
      1          6           0        0.000000    0.000000    0.000000
      2          6           0        0.000000    0.000000    1.503823
      3          1           0        0.019001    0.000000   -0.999819
      4          1           0       -0.469132   -0.814632   -0.341013
      5          1           0       -1.123451    0.020860   -0.385396
      6          1           0       -1.068790    0.000008    1.870732
      7          1           0        0.525796   -0.910477    1.864770
      8          1           0        0.009341    0.016179    2.503649
 ---------------------------------------------------------------------

 SCF Done:  E(RB3LYP) =  -79.5177937567     A.U. after   11 cycles

 Alpha  occ. eigenvalues --  -10.20066 -10.19683  -0.81814  -0.73470  -0.51401
 Alpha  occ. eigenvalues --   -0.43761  -0.37489  -0.29142  -0.23753
 Alpha virt. eigenvalues --   -0.00910   0.00132   0.05236   0.05296   0.06288
 Alpha virt. eigenvalues --    0.07373   0.08974   0.09533   0.13174   0.16547
 Alpha virt. eigenvalues --    0.21411   0.21865   0.25178   0.26656   0.39832

 Mulliken atomic charges:
              1
     1  C   -0.253976
     2  C   -0.461794
     3  H    0.124392
     4  H    0.100165
     5  H    0.049359
     6  H    0.134478
     7  H    0.131310
     8  H    0.176066
 Sum of Mulliken atomic charges =  -0.00000

 Dipole moment (field-independent basis, Debye):
    X=             -0.9546    Y=             -1.1280    Z=              0.3331  Tot=              1.5148
 Quadrupole moment (field-independent basis, Debye-Ang):
   XX=            -16.0747   YY=            -17.9188   ZZ=            -11.6019
   XY=             -0.1494   XZ=             -0.1245   YZ=             -0.5946

 Optimization completed.
    -- Stationary point found.
 Normal termination of Gaussian 09 at Wed May 26 19:10:27 2021.
