 Gaussian 09, Revision A.02,
 Gaussian 09:  EM64L-G09RevA.02 11-Jun-2009

 --------------------------------
 #p b3lyp/6-31+g(d,p) force nosym
 --------------------------------

 -------------
 c2h6 molecule
 -------------
 Symbolic Z-matrix:
 Charge =  0 Multiplicity = 1

                          Input orientation:
 ---------------------------------------------------------------------
 Center     Atomic      Atomic             Coordinates (Angstroms)
 Number     Number       Type             X           Y           Z
 ---------------------------------------------------------------------
      1          6           0        0.000000    0.000000    0.000000
      2          6           0        0.000000    0.000000    1.707033
      3          1           0        0.028184    0.000000   -1.211899
      4          1           0       -0.467055   -0.817137   -0.337855
      5          1           0       -1.091083    0.023813   -0.369920
      6          1           0       -1.023243    0.000032    2.054908
      7          1           0        0.521359   -0.901473    2.061083
      8          1           0        0.014634    0.025345    3.052423
 ---------------------------------------------------------------------

 SCF Done:  E(RB3LYP) =  -79.5048674183     A.U. after   11 cycles

 Alpha  occ. eigenvalues --  -10.24090 -10.22374  -0.78084  -0.69339  -0.45146
 Alpha  occ. eigenvalues --   -0.42958  -0.35639  -0.29744  -0.25227
 Alpha virt. eigenvalues --   -0.08110  -0.00501   0.02913   0.04347   0.05951
 Alpha virt. eigenvalues --    0.06924   0.08498   0.09107   0.13912   0.15533
 Alpha virt. eigenvalues --    0.16836   0.21515   0.23432   0.25544   0.30010

 Mulliken atomic charges:
              1
     1  C   -0.341751
     2  C   -0.438528
     3  H    0.138108
     4  H    0.113159
     5  H    0.067315
     6  H    0.152902
     7  H    0.150898
     8  H    0.157897
 Sum of Mulliken atomic charges =  -0.00000

 Dipole moment (field-independent basis, Debye):
    X=             -1.2662    Y=             -1.3574    Z=              0.3121  Tot=              1.8823
 Quadrupole moment (field-independent basis, Debye-Ang):
   XX=            -16.5623   YY=            -18.2994   ZZ=            -11.5819
   XY=              0.0703   XZ=             -0.3268   YZ=             -1.2915

 Optimization completed.
    -- Stationary point found.
 Normal termination of Gaussian 09 at Wed May 26 19:09:34 2021.
