 Gaussian 09, Revision A.02,
 Gaussian 09:  EM64L-G09RevA.02 11-Jun-2009

 --------------------------------
 #p b3lyp/6-31+g(d,p) force nosym
 --------------------------------

 -------------
 c2h6 molecule
 -------------
 Symbolic Z-matrix:
 Charge =  0 Multiplicity = 1

                          Input orientation:
 ---------------------------------------------------------------------
 Center     Atomic      Atomic             Coordinates (Angstroms)
 Number     Number       Type             X           Y           Z
 ---------------------------------------------------------------------
      1          6           0        0.000000    0.000000    0.000000
      2          6           0        0.000000    0.000000    1.565374
      3          1           0        0.830599    0.000000   -0.744304
      4          1           0       -0.298689   -1.099600   -0.074508
      5          1           0       -0.841423    0.471104   -0.499162
      6          1           0       -1.089014    0.008009    1.770226
      7          1           0        0.259374   -1.009775    1.882408
      8          1           0        0.473862    0.799074    2.097501
 ---------------------------------------------------------------------

 SCF Done:  E(RB3LYP) =  -79.8123031568     A.U. after    9 cycles

 Alpha  occ. eigenvalues --  -10.18642 -10.18504  -0.75367  -0.62134  -0.44329
 Alpha  occ. eigenvalues --   -0.42785  -0.37679  -0.33985  -0.32480
 Alpha virt. eigenvalues --    0.01390   0.02634   0.05316   0.05547   0.07886
 Alpha virt. eigenvalues --    0.08847   0.09038   0.13574   0.14497   0.18279
 Alpha virt. eigenvalues --    0.21624   0.23650   0.25464   0.28431   0.32620

 Mulliken atomic charges:
              1
     1  C   -0.432900
     2  C   -0.454126
     3  H    0.149586
     4  H    0.129188
     5  H    0.152718
     6  H    0.149681
     7  H    0.153728
     8  H    0.152126
 Sum of Mulliken atomic charges =  -0.00000

 Dipole moment (field-independent basis, Debye):
    X=             -0.1916    Y=             -0.2076    Z=              0.0651  Tot=              0.2899
 Quadrupole moment (field-independent basis, Debye-Ang):
   XX=            -15.4084   YY=            -15.3291   ZZ=            -15.2338
   XY=             -0.0164   XZ=             -0.2233   YZ=             -0.1660

 Optimization completed.
    -- Stationary point found.
 Normal termination of Gaussian 09 at Wed May 26 19:16:00 2021.
