 Gaussian 09, Revision A.02,
 Gaussian 09:  EM64L-G09RevA.02 11-Jun-2009

 --------------------------------
 #p b3lyp/6-31+g(d,p) force nosym
 --------------------------------

 -------------
 c2h6 molecule
 -------------
 Symbolic Z-matrix:
 Charge =  0 Multiplicity = 1

                          Input orientation:
 ---------------------------------------------------------------------
 Center     Atomic      Atomic             Coordinates (Angstroms)
 Number     Number       Type             X           Y           Z
 ---------------------------------------------------------------------
      1          6           0        0.000000    0.000000    0.000000
      2          6           0        0.000000    0.000000    1.000000
      3          1           0        0.017976    0.000000   -1.029843
      4          1           0       -0.493339   -0.854488   -0.359121
      5          1           0       -1.039912    0.018152   -0.358125
      6          1           0       -0.973884    0.000000    1.335335
      7          1           0        0.496397   -0.859785    1.341847
      8          1           0        0.009599    0.016626    2.099832
 ---------------------------------------------------------------------

 SCF Done:  E(RB3LYP) =  -79.1283645170     A.U. after   13 cycles

 Alpha  occ. eigenvalues --  -10.17790 -10.16372  -0.92994  -0.71084  -0.59691
 Alpha  occ. eigenvalues --   -0.53451  -0.44962  -0.24582  -0.17575
 Alpha virt. eigenvalues --   -0.01739   0.00822   0.03139   0.03533   0.05629
 Alpha virt. eigenvalues --    0.09285   0.09699   0.12133   0.14482   0.17246
 Alpha virt. eigenvalues --    0.21829   0.23224   0.24797   0.32479   0.55318

 Mulliken atomic charges:
              1
     1  C   -0.288845
     2  C   -0.444239
     3  H    0.154342
     4  H    0.040734
     5  H    0.062348
     6  H    0.150289
     7  H    0.107343
     8  H    0.218027
 Sum of Mulliken atomic charges =  -0.00000

 Dipole moment (field-independent basis, Debye):
    X=             -1.2655    Y=             -1.0571    Z=              0.4393  Tot=              1.7065
 Quadrupole moment (field-independent basis, Debye-Ang):
   XX=            -15.2109   YY=            -17.2002   ZZ=            -14.3574
   XY=             -0.0449   XZ=             -0.6935   YZ=             -0.8432

 Optimization completed.
    -- Stationary point found.
 Normal termination of Gaussian 09 at Wed May 26 19:07:32 2021.
