 Gaussian 09, Revision A.02,
 Gaussian 09:  EM64L-G09RevA.02 11-Jun-2009

 --------------------------------
 #p b3lyp/6-31+g(d,p) force nosym
 --------------------------------

 -------------
 c2h6 molecule
 -------------
 Symbolic Z-matrix:
 Charge =  0 Multiplicity = 1

                          Input orientation:
 ---------------------------------------------------------------------
 Center     Atomic      Atomic             Coordinates (Angstroms)
 Number     Number       Type             X           Y           Z
 ---------------------------------------------------------------------
      1          6           0        0.000000    0.000000    0.000000
      2          6           0        0.000000    0.000000    1.433172
      3          1           0        0.032999    0.000000   -1.095236
      4          1           0       -0.584096   -1.034196   -0.419369
      5          1           0       -1.077152    0.029070   -0.358397
      6          1           0       -1.050548    0.000071    1.784940
      7          1           0        0.526871   -0.909234    1.785076
      8          1           0        0.018240    0.031588    2.790576
 ---------------------------------------------------------------------

 SCF Done:  E(RB3LYP) =  -79.5395728363     A.U. after   12 cycles

 Alpha  occ. eigenvalues --  -10.22295 -10.21839  -0.79436  -0.67149  -0.49659
 Alpha  occ. eigenvalues --   -0.44244  -0.36979  -0.28485  -0.22961
 Alpha virt. eigenvalues --   -0.05174  -0.00681   0.02831   0.05113   0.06055
 Alpha virt. eigenvalues --    0.07444   0.08835   0.09522   0.11923   0.14820
 Alpha virt. eigenvalues --    0.17650   0.20587   0.22653   0.26846   0.41863

 Mulliken atomic charges:
              1
     1  C   -0.364337
     2  C   -0.412792
     3  H    0.173266
     4  H    0.040228
     5  H    0.085752
     6  H    0.147371
     7  H    0.148197
     8  H    0.182315
 Sum of Mulliken atomic charges =  -0.00000

 Dipole moment (field-independent basis, Debye):
    X=             -1.1434    Y=             -0.8961    Z=              0.2404  Tot=              1.4725
 Quadrupole moment (field-independent basis, Debye-Ang):
   XX=            -16.3318   YY=            -18.4252   ZZ=            -12.5905
   XY=             -0.1230   XZ=             -0.3826   YZ=             -1.4579

 Optimization completed.
    -- Stationary point found.
 Normal termination of Gaussian 09 at Wed May 26 19:10:17 2021.
