 Gaussian 09, Revision A.02,
 Gaussian 09:  EM64L-G09RevA.02 11-Jun-2009

 --------------------------------
 #p b3lyp/6-31+g(d,p) force nosym
 --------------------------------

 -------------
 c2h6 molecule
 -------------
 Symbolic Z-matrix:
 Charge =  0 Multiplicity = 1

                          Input orientation:
 ---------------------------------------------------------------------
 Center     Atomic      Atomic             Coordinates (Angstroms)
 Number     Number       Type             X           Y           Z
 ---------------------------------------------------------------------
      1          6           0        0.000000    0.000000    0.000000
      2          6           0        0.000000    0.000000    1.615278
      3          1           0        0.487535    0.000000   -1.056174
      4          1           0       -0.294199   -1.325504   -0.050897
      5          1           0       -1.045044    0.351456   -0.002660
      6          1           0       -1.084314    0.002645    1.685389
      7          1           0        0.582451   -0.937753    1.689621
      8          1           0        0.185796    0.319998    2.642105
 ---------------------------------------------------------------------

 SCF Done:  E(RB3LYP) =  -79.6890558904     A.U. after   10 cycles

 Alpha  occ. eigenvalues --  -10.22801 -10.19847  -0.75792  -0.61863  -0.46704
 Alpha  occ. eigenvalues --   -0.43470  -0.35365  -0.33298  -0.27194
 Alpha virt. eigenvalues --   -0.00370   0.00594   0.04649   0.04925   0.06351
 Alpha virt. eigenvalues --    0.07453   0.08661   0.10098   0.11546   0.15512
 Alpha virt. eigenvalues --    0.19719   0.20885   0.22781   0.29826   0.34371

 Mulliken atomic charges:
              1
     1  C   -0.473273
     2  C   -0.391459
     3  H    0.169854
     4  H    0.093493
     5  H    0.152388
     6  H    0.136277
     7  H    0.150639
     8  H    0.162081
 Sum of Mulliken atomic charges =   0.00000

 Dipole moment (field-independent basis, Debye):
    X=             -0.2920    Y=             -0.2733    Z=              0.1309  Tot=              0.4208
 Quadrupole moment (field-independent basis, Debye-Ang):
   XX=            -15.7135   YY=            -16.9924   ZZ=            -14.3652
   XY=             -0.9366   XZ=             -0.7529   YZ=             -0.1131

 Optimization completed.
    -- Stationary point found.
 Normal termination of Gaussian 09 at Wed May 26 19:11:59 2021.
