 Gaussian 09, Revision A.02,
 Gaussian 09:  EM64L-G09RevA.02 11-Jun-2009

 --------------------------------
 #p b3lyp/6-31+g(d,p) force nosym
 --------------------------------

 -------------
 c2h6 molecule
 -------------
 Symbolic Z-matrix:
 Charge =  0 Multiplicity = 1

                          Input orientation:
 ---------------------------------------------------------------------
 Center     Atomic      Atomic             Coordinates (Angstroms)
 Number     Number       Type             X           Y           Z
 ---------------------------------------------------------------------
      1          6           0        0.000000    0.000000    0.000000
      2          6           0        0.000000    0.000000    1.713856
      3          1           0        0.543042    0.000000   -0.945415
      4          1           0       -0.166929   -1.076064    0.031032
      5          1           0       -1.001942    0.411662    0.071445
      6          1           0       -1.087509    0.003244    1.723072
      7          1           0        0.581940   -0.925306    1.726975
      8          1           0        0.224996    0.387027    2.722643
 ---------------------------------------------------------------------

 SCF Done:  E(RB3LYP) =  -79.7203672566     A.U. after   10 cycles

 Alpha  occ. eigenvalues --  -10.19846 -10.19713  -0.75491  -0.63052  -0.47300
 Alpha  occ. eigenvalues --   -0.43339  -0.36752  -0.32828  -0.28987
 Alpha virt. eigenvalues --    0.00388   0.00938   0.04963   0.05809   0.06637
 Alpha virt. eigenvalues --    0.07452   0.08688   0.10353   0.14732   0.15553
 Alpha virt. eigenvalues --    0.19813   0.21478   0.25520   0.29614   0.33015

 Mulliken atomic charges:
              1
     1  C   -0.454302
     2  C   -0.430712
     3  H    0.154031
     4  H    0.146753
     5  H    0.152764
     6  H    0.133546
     7  H    0.144617
     8  H    0.153304
 Sum of Mulliken atomic charges =  -0.00000

 Dipole moment (field-independent basis, Debye):
    X=             -0.2596    Y=             -0.5364    Z=             -0.0209  Tot=              0.5963
 Quadrupole moment (field-independent basis, Debye-Ang):
   XX=            -15.4471   YY=            -16.3775   ZZ=            -14.7342
   XY=             -1.0420   XZ=             -0.7310   YZ=              0.1908

 Optimization completed.
    -- Stationary point found.
 Normal termination of Gaussian 09 at Wed May 26 19:13:15 2021.
