 Gaussian 09, Revision A.02,
 Gaussian 09:  EM64L-G09RevA.02 11-Jun-2009

 --------------------------------
 #p b3lyp/6-31+g(d,p) force nosym
 --------------------------------

 -------------
 c2h6 molecule
 -------------
 Symbolic Z-matrix:
 Charge =  0 Multiplicity = 1

                          Input orientation:
 ---------------------------------------------------------------------
 Center     Atomic      Atomic             Coordinates (Angstroms)
 Number     Number       Type             X           Y           Z
 ---------------------------------------------------------------------
      1          6           0        0.000000    0.000000    0.000000
      2          6           0        0.000000    0.000000    1.567854
      3          1           0        0.820067    0.000000   -0.744440
      4          1           0       -0.285862   -1.089868   -0.052758
      5          1           0       -0.842301    0.472174   -0.503765
      6          1           0       -1.087172    0.011098    1.760873
      7          1           0        0.244174   -1.017612    1.873467
      8          1           0        0.480096    0.810002    2.092035
 ---------------------------------------------------------------------

 SCF Done:  E(RB3LYP) =  -79.8110528909     A.U. after   10 cycles

 Alpha  occ. eigenvalues --  -10.18708 -10.18283  -0.75469  -0.62119  -0.44548
 Alpha  occ. eigenvalues --   -0.42748  -0.37653  -0.33916  -0.32475
 Alpha virt. eigenvalues --    0.01405   0.02653   0.05288   0.05564   0.07880
 Alpha virt. eigenvalues --    0.08841   0.09045   0.13638   0.14449   0.18383
 Alpha virt. eigenvalues --    0.21647   0.23795   0.25256   0.28481   0.32679

 Mulliken atomic charges:
              1
     1  C   -0.431143
     2  C   -0.457161
     3  H    0.149694
     4  H    0.130643
     5  H    0.151203
     6  H    0.151118
     7  H    0.153940
     8  H    0.151706
 Sum of Mulliken atomic charges =  -0.00000

 Dipole moment (field-independent basis, Debye):
    X=             -0.1966    Y=             -0.2216    Z=              0.0599  Tot=              0.3023
 Quadrupole moment (field-independent basis, Debye-Ang):
   XX=            -15.4248   YY=            -15.2614   ZZ=            -15.2918
   XY=              0.0000   XZ=             -0.2467   YZ=             -0.1864

 Optimization completed.
    -- Stationary point found.
 Normal termination of Gaussian 09 at Wed May 26 19:15:52 2021.
