 Gaussian 09, Revision A.02,
 Gaussian 09:  EM64L-G09RevA.02 11-Jun-2009

 --------------------------------
 #p b3lyp/6-31+g(d,p) force nosym
 --------------------------------

 -------------
 c2h6 molecule
 -------------
 Symbolic Z-matrix:
 Charge =  0 Multiplicity = 1

                          Input orientation:
 ---------------------------------------------------------------------
 Center     Atomic      Atomic             Coordinates (Angstroms)
 Number     Number       Type             X           Y           Z
 ---------------------------------------------------------------------
      1          6           0        0.000000    0.000000    0.000000
      2          6           0        0.000000    0.000000    1.541596
      3          1           0        1.026271    0.000000   -0.383535
      4          1           0       -0.322111   -1.016087   -0.292347
      5          1           0       -0.783954    0.617638   -0.434760
      6          1           0       -1.053227    0.019969    1.852368
      7          1           0        0.390115   -0.912907    2.006461
      8          1           0        0.561240    0.819061    1.993846
 ---------------------------------------------------------------------

 SCF Done:  E(RB3LYP) =  -79.8317883987     A.U. after    9 cycles

 Alpha  occ. eigenvalues --  -10.17985 -10.17775  -0.75296  -0.61819  -0.44701
 Alpha  occ. eigenvalues --   -0.42524  -0.37202  -0.34690  -0.33099
 Alpha virt. eigenvalues --    0.01687   0.02997   0.05157   0.05568   0.08006
 Alpha virt. eigenvalues --    0.08808   0.09105   0.14242   0.15059   0.20019
 Alpha virt. eigenvalues --    0.20612   0.23856   0.25194   0.29380   0.32830

 Mulliken atomic charges:
              1
     1  C   -0.447949
     2  C   -0.429840
     3  H    0.148987
     4  H    0.143063
     5  H    0.153352
     6  H    0.141224
     7  H    0.144694
     8  H    0.146469
 Sum of Mulliken atomic charges =  -0.00000

 Dipole moment (field-independent basis, Debye):
    X=             -0.0554    Y=             -0.1529    Z=             -0.0038  Tot=              0.1627
 Quadrupole moment (field-independent basis, Debye-Ang):
   XX=            -14.7360   YY=            -15.4489   ZZ=            -15.8142
   XY=             -0.1526   XZ=              0.2078   YZ=             -0.1254

 Optimization completed.
    -- Stationary point found.
 Normal termination of Gaussian 09 at Wed May 26 19:17:08 2021.
