 Gaussian 09, Revision A.02,
 Gaussian 09:  EM64L-G09RevA.02 11-Jun-2009

 --------------------------------
 #p b3lyp/6-31+g(d,p) force nosym
 --------------------------------

 -------------
 c2h6 molecule
 -------------
 Symbolic Z-matrix:
 Charge =  0 Multiplicity = 1

                          Input orientation:
 ---------------------------------------------------------------------
 Center     Atomic      Atomic             Coordinates (Angstroms)
 Number     Number       Type             X           Y           Z
 ---------------------------------------------------------------------
      1          6           0        0.000000    0.000000    0.000000
      2          6           0        0.000000    0.000000    1.481372
      3          1           0        0.193070    0.000000   -1.159082
      4          1           0       -0.535776   -1.216108   -0.322666
      5          1           0       -1.066884    0.135901   -0.234018
      6          1           0       -1.066927    0.000920    1.738472
      7          1           0        0.572540   -0.965223    1.752896
      8          1           0        0.069756    0.120580    2.515413
 ---------------------------------------------------------------------

 SCF Done:  E(RB3LYP) =  -79.6148195892     A.U. after   11 cycles

 Alpha  occ. eigenvalues --  -10.22750 -10.20221  -0.78130  -0.65579  -0.47899
 Alpha  occ. eigenvalues --   -0.44821  -0.36470  -0.30761  -0.24333
 Alpha virt. eigenvalues --   -0.01451  -0.00027   0.04035   0.05050   0.05968
 Alpha virt. eigenvalues --    0.07585   0.08862   0.09737   0.10811   0.16065
 Alpha virt. eigenvalues --    0.18475   0.20064   0.24677   0.29200   0.39808

 Mulliken atomic charges:
              1
     1  C   -0.432720
     2  C   -0.422009
     3  H    0.202701
     4  H    0.049589
     5  H    0.133244
     6  H    0.141087
     7  H    0.141897
     8  H    0.186211
 Sum of Mulliken atomic charges =  -0.00000

 Dipole moment (field-independent basis, Debye):
    X=             -0.7591    Y=             -0.3635    Z=              0.4009  Tot=              0.9323
 Quadrupole moment (field-independent basis, Debye-Ang):
   XX=            -15.9884   YY=            -18.1073   ZZ=            -12.5168
   XY=             -0.5297   XZ=             -0.3316   YZ=             -0.6140

 Optimization completed.
    -- Stationary point found.
 Normal termination of Gaussian 09 at Wed May 26 19:11:39 2021.
