 Gaussian 09, Revision A.02,
 Gaussian 09:  EM64L-G09RevA.02 11-Jun-2009

 --------------------------------
 #p b3lyp/6-31+g(d,p) force nosym
 --------------------------------

 -------------
 c2h6 molecule
 -------------
 Symbolic Z-matrix:
 Charge =  0 Multiplicity = 1

                          Input orientation:
 ---------------------------------------------------------------------
 Center     Atomic      Atomic             Coordinates (Angstroms)
 Number     Number       Type             X           Y           Z
 ---------------------------------------------------------------------
      1          6           0        0.000000    0.000000    0.000000
      2          6           0        0.000000    0.000000    1.568774
      3          1           0        0.817545    0.000000   -0.729764
      4          1           0       -0.270241   -1.074504   -0.033550
      5          1           0       -0.841467    0.480598   -0.508288
      6          1           0       -1.083167    0.013081    1.750549
      7          1           0        0.231648   -1.024439    1.865736
      8          1           0        0.490895    0.828186    2.077172
 ---------------------------------------------------------------------

 SCF Done:  E(RB3LYP) =  -79.8102605343     A.U. after   10 cycles

 Alpha  occ. eigenvalues --  -10.18751 -10.17959  -0.75620  -0.62069  -0.44744
 Alpha  occ. eigenvalues --   -0.42789  -0.37614  -0.33899  -0.32460
 Alpha virt. eigenvalues --    0.01439   0.02708   0.05252   0.05567   0.07882
 Alpha virt. eigenvalues --    0.08837   0.09051   0.13768   0.14395   0.18620
 Alpha virt. eigenvalues --    0.21639   0.24010   0.24955   0.28578   0.32776

 Mulliken atomic charges:
              1
     1  C   -0.429230
     2  C   -0.459799
     3  H    0.149644
     4  H    0.132937
     5  H    0.149266
     6  H    0.152594
     7  H    0.153680
     8  H    0.150907
 Sum of Mulliken atomic charges =   0.00000

 Dipole moment (field-independent basis, Debye):
    X=             -0.1939    Y=             -0.2367    Z=              0.0473  Tot=              0.3096
 Quadrupole moment (field-independent basis, Debye-Ang):
   XX=            -15.4111   YY=            -15.1710   ZZ=            -15.4148
   XY=              0.0142   XZ=             -0.2700   YZ=             -0.2169

 Optimization completed.
    -- Stationary point found.
 Normal termination of Gaussian 09 at Wed May 26 19:15:14 2021.
