 Gaussian 09, Revision A.02,
 Gaussian 09:  EM64L-G09RevA.02 11-Jun-2009

 --------------------------------
 #p b3lyp/6-31+g(d,p) force nosym
 --------------------------------

 -------------
 c2h6 molecule
 -------------
 Symbolic Z-matrix:
 Charge =  0 Multiplicity = 1

                          Input orientation:
 ---------------------------------------------------------------------
 Center     Atomic      Atomic             Coordinates (Angstroms)
 Number     Number       Type             X           Y           Z
 ---------------------------------------------------------------------
      1          6           0        0.000000    0.000000    0.000000
      2          6           0        0.000000    0.000000    1.485386
      3          1           0        0.028791    0.000000   -1.100723
      4          1           0       -0.552566   -0.971480   -0.398536
      5          1           0       -1.104407    0.026441   -0.371624
      6          1           0       -1.060465    0.000050    1.843767
      7          1           0        0.535376   -0.925253    1.846680
      8          1           0        0.013065    0.022626    2.571813
 ---------------------------------------------------------------------

 SCF Done:  E(RB3LYP) =  -79.5559149930     A.U. after   11 cycles

 Alpha  occ. eigenvalues --  -10.21815 -10.20878  -0.79236  -0.70013  -0.50684
 Alpha  occ. eigenvalues --   -0.43786  -0.36634  -0.28670  -0.23309
 Alpha virt. eigenvalues --   -0.01451  -0.00607   0.04241   0.05131   0.06052
 Alpha virt. eigenvalues --    0.07146   0.08900   0.09551   0.12481   0.15813
 Alpha virt. eigenvalues --    0.18163   0.20888   0.23793   0.25960   0.40262

 Mulliken atomic charges:
              1
     1  C   -0.305186
     2  C   -0.472114
     3  H    0.169493
     4  H    0.058571
     5  H    0.073216
     6  H    0.138566
     7  H    0.134658
     8  H    0.202797
 Sum of Mulliken atomic charges =   0.00000

 Dipole moment (field-independent basis, Debye):
    X=             -1.0706    Y=             -0.9178    Z=              0.4508  Tot=              1.4804
 Quadrupole moment (field-independent basis, Debye-Ang):
   XX=            -16.2613   YY=            -18.4057   ZZ=            -11.4264
   XY=             -0.1665   XZ=             -0.1572   YZ=             -0.8862

 Optimization completed.
    -- Stationary point found.
 Normal termination of Gaussian 09 at Wed May 26 19:10:57 2021.
