 Gaussian 09, Revision A.02,
 Gaussian 09:  EM64L-G09RevA.02 11-Jun-2009

 --------------------------------
 #p b3lyp/6-31+g(d,p) force nosym
 --------------------------------

 -------------
 c2h6 molecule
 -------------
 Symbolic Z-matrix:
 Charge =  0 Multiplicity = 1

                          Input orientation:
 ---------------------------------------------------------------------
 Center     Atomic      Atomic             Coordinates (Angstroms)
 Number     Number       Type             X           Y           Z
 ---------------------------------------------------------------------
      1          6           0        0.000000    0.000000    0.000000
      2          6           0        0.000000    0.000000    3.492924
      3          1           0        0.019896    0.000000   -1.132626
      4          1           0       -0.567690   -0.983410   -0.413237
      5          1           0       -1.108353    0.019420   -0.381632
      6          1           0       -1.051261    0.000000    3.854869
      7          1           0        0.529901   -0.917824    3.857810
      8          1           0        0.010176    0.017625    4.652272
 ---------------------------------------------------------------------

 SCF Done:  E(RB3LYP) =  -79.3477793826     A.U. after   22 cycles

 Alpha  occ. eigenvalues --  -10.27854 -10.22486  -0.75481  -0.71441  -0.45362
 Alpha  occ. eigenvalues --   -0.34644  -0.33244  -0.28168  -0.26990
 Alpha virt. eigenvalues --   -0.23592  -0.01176   0.01312   0.05254   0.06299
 Alpha virt. eigenvalues --    0.07576   0.08900   0.09374   0.11040   0.12539
 Alpha virt. eigenvalues --    0.14284   0.16057   0.19811   0.21586   0.22950

 Mulliken atomic charges:
              1
     1  C   -0.366822
     2  C   -0.316103
     3  H    0.121457
     4  H    0.043855
     5  H    0.067583
     6  H    0.175382
     7  H    0.175397
     8  H    0.099251
 Sum of Mulliken atomic charges =   0.00000

 Dipole moment (field-independent basis, Debye):
    X=             -1.1010    Y=             -1.0413    Z=              2.7898  Tot=              3.1748
 Quadrupole moment (field-independent basis, Debye-Ang):
   XX=            -16.6606   YY=            -18.4189   ZZ=              2.0292
   XY=              0.3279   XZ=             -0.4757   YZ=             -2.1305

 Optimization completed.
    -- Stationary point found.
 Normal termination of Gaussian 09 at Wed May 26 19:08:01 2021.
