 Gaussian 09, Revision A.02,
 Gaussian 09:  EM64L-G09RevA.02 11-Jun-2009

 --------------------------------
 #p b3lyp/6-31+g(d,p) force nosym
 --------------------------------

 -------------
 c2h6 molecule
 -------------
 Symbolic Z-matrix:
 Charge =  0 Multiplicity = 1

                          Input orientation:
 ---------------------------------------------------------------------
 Center     Atomic      Atomic             Coordinates (Angstroms)
 Number     Number       Type             X           Y           Z
 ---------------------------------------------------------------------
      1          6           0        0.000000    0.000000    0.000000
      2          6           0        0.000000    0.000000    1.569134
      3          1           0        0.817148    0.000000   -0.731865
      4          1           0       -0.271537   -1.076154   -0.034744
      5          1           0       -0.841741    0.479529   -0.507742
      6          1           0       -1.083555    0.013006    1.751595
      7          1           0        0.232453   -1.023761    1.866349
      8          1           0        0.489646    0.826118    2.079302
 ---------------------------------------------------------------------

 SCF Done:  E(RB3LYP) =  -79.8102854943     A.U. after   10 cycles

 Alpha  occ. eigenvalues --  -10.18746 -10.17992  -0.75601  -0.62079  -0.44731
 Alpha  occ. eigenvalues --   -0.42781  -0.37613  -0.33901  -0.32462
 Alpha virt. eigenvalues --    0.01435   0.02701   0.05257   0.05568   0.07882
 Alpha virt. eigenvalues --    0.08837   0.09050   0.13756   0.14399   0.18592
 Alpha virt. eigenvalues --    0.21644   0.23985   0.24982   0.28567   0.32769

 Mulliken atomic charges:
              1
     1  C   -0.429435
     2  C   -0.459625
     3  H    0.149666
     4  H    0.132686
     5  H    0.149442
     6  H    0.152488
     7  H    0.153761
     8  H    0.151017
 Sum of Mulliken atomic charges =   0.00000

 Dipole moment (field-independent basis, Debye):
    X=             -0.1944    Y=             -0.2355    Z=              0.0492  Tot=              0.3093
 Quadrupole moment (field-independent basis, Debye-Ang):
   XX=            -15.4138   YY=            -15.1794   ZZ=            -15.3995
   XY=              0.0127   XZ=             -0.2681   YZ=             -0.2138

 Optimization completed.
    -- Stationary point found.
 Normal termination of Gaussian 09 at Wed May 26 19:15:23 2021.
