 Gaussian 09, Revision A.02,
 Gaussian 09:  EM64L-G09RevA.02 11-Jun-2009

 --------------------------------
 #p b3lyp/6-31+g(d,p) force nosym
 --------------------------------

 -------------
 c2h6 molecule
 -------------
 Symbolic Z-matrix:
 Charge =  0 Multiplicity = 1

                          Input orientation:
 ---------------------------------------------------------------------
 Center     Atomic      Atomic             Coordinates (Angstroms)
 Number     Number       Type             X           Y           Z
 ---------------------------------------------------------------------
      1          6           0        0.000000    0.000000    0.000000
      2          6           0        0.000000    0.000000    1.536279
      3          1           0        1.026333    0.000000   -0.415986
      4          1           0       -0.340563   -1.039781   -0.307032
      5          1           0       -0.787342    0.599622   -0.442607
      6          1           0       -1.057517    0.014223    1.855287
      7          1           0        0.391405   -0.909494    2.004881
      8          1           0        0.545293    0.807660    2.003542
 ---------------------------------------------------------------------

 SCF Done:  E(RB3LYP) =  -79.8308234520     A.U. after    9 cycles

 Alpha  occ. eigenvalues --  -10.18393 -10.17788  -0.75245  -0.61822  -0.44552
 Alpha  occ. eigenvalues --   -0.42357  -0.37563  -0.34688  -0.32788
 Alpha virt. eigenvalues --    0.01644   0.02938   0.05159   0.05574   0.08007
 Alpha virt. eigenvalues --    0.08797   0.09109   0.14223   0.14633   0.19863
 Alpha virt. eigenvalues --    0.20530   0.23918   0.25413   0.29274   0.32553

 Mulliken atomic charges:
              1
     1  C   -0.446773
     2  C   -0.428379
     3  H    0.148584
     4  H    0.137624
     5  H    0.155019
     6  H    0.140460
     7  H    0.145403
     8  H    0.148060
 Sum of Mulliken atomic charges =  -0.00000

 Dipole moment (field-independent basis, Debye):
    X=             -0.0551    Y=             -0.1264    Z=              0.0170  Tot=              0.1389
 Quadrupole moment (field-independent basis, Debye-Ang):
   XX=            -14.7836   YY=            -15.5486   ZZ=            -15.6763
   XY=             -0.1428   XZ=              0.2023   YZ=             -0.1054

 Optimization completed.
    -- Stationary point found.
 Normal termination of Gaussian 09 at Wed May 26 19:16:52 2021.
