 Gaussian 09, Revision A.02,
 Gaussian 09:  EM64L-G09RevA.02 11-Jun-2009

 --------------------------------
 #p b3lyp/6-31+g(d,p) force nosym
 --------------------------------

 -------------
 c2h6 molecule
 -------------
 Symbolic Z-matrix:
 Charge =  0 Multiplicity = 1

                          Input orientation:
 ---------------------------------------------------------------------
 Center     Atomic      Atomic             Coordinates (Angstroms)
 Number     Number       Type             X           Y           Z
 ---------------------------------------------------------------------
      1          6           0        0.000000    0.000000    0.000000
      2          6           0        0.000000    0.000000    1.536119
      3          1           0        0.989487    0.000000   -0.537689
      4          1           0       -0.354764   -1.086556   -0.271134
      5          1           0       -0.804943    0.549359   -0.460951
      6          1           0       -1.071815    0.004700    1.838434
      7          1           0        0.368877   -0.930818    1.973697
      8          1           0        0.508932    0.791829    2.039131
 ---------------------------------------------------------------------

 SCF Done:  E(RB3LYP) =  -79.8263487385     A.U. after    9 cycles

 Alpha  occ. eigenvalues --  -10.18910 -10.17970  -0.75171  -0.61884  -0.43983
 Alpha  occ. eigenvalues --   -0.42534  -0.37883  -0.34680  -0.32439
 Alpha virt. eigenvalues --    0.01534   0.02824   0.05231   0.05527   0.08015
 Alpha virt. eigenvalues --    0.08804   0.09085   0.13856   0.14376   0.18949
 Alpha virt. eigenvalues --    0.21019   0.24184   0.25439   0.28922   0.32385

 Mulliken atomic charges:
              1
     1  C   -0.444312
     2  C   -0.429874
     3  H    0.148032
     4  H    0.129350
     5  H    0.157274
     6  H    0.141041
     7  H    0.147873
     8  H    0.150617
 Sum of Mulliken atomic charges =  -0.00000

 Dipole moment (field-independent basis, Debye):
    X=             -0.0837    Y=             -0.1136    Z=              0.0456  Tot=              0.1482
 Quadrupole moment (field-independent basis, Debye-Ang):
   XX=            -14.9614   YY=            -15.6102   ZZ=            -15.4454
   XY=             -0.1215   XZ=              0.0689   YZ=             -0.0993

 Optimization completed.
    -- Stationary point found.
 Normal termination of Gaussian 09 at Wed May 26 19:16:33 2021.
