 Gaussian 09, Revision A.02,
 Gaussian 09:  EM64L-G09RevA.02 11-Jun-2009

 --------------------------------
 #p b3lyp/6-31+g(d,p) force nosym
 --------------------------------

 -------------
 c2h6 molecule
 -------------
 Symbolic Z-matrix:
 Charge =  0 Multiplicity = 1

                          Input orientation:
 ---------------------------------------------------------------------
 Center     Atomic      Atomic             Coordinates (Angstroms)
 Number     Number       Type             X           Y           Z
 ---------------------------------------------------------------------
      1          6           0        0.000000    0.000000    0.000000
      2          6           0        0.000000    0.000000    1.539973
      3          1           0        1.019057    0.000000   -0.396365
      4          1           0       -0.318807   -1.021128   -0.278099
      5          1           0       -0.785734    0.613552   -0.440399
      6          1           0       -1.054442    0.020091    1.843545
      7          1           0        0.381082   -0.920656    1.996920
      8          1           0        0.561454    0.824340    1.989560
 ---------------------------------------------------------------------

 SCF Done:  E(RB3LYP) =  -79.8318659359     A.U. after    9 cycles

 Alpha  occ. eigenvalues --  -10.17938 -10.17802  -0.75344  -0.61759  -0.44654
 Alpha  occ. eigenvalues --   -0.42655  -0.37116  -0.34719  -0.33104
 Alpha virt. eigenvalues --    0.01684   0.03012   0.05167   0.05537   0.08005
 Alpha virt. eigenvalues --    0.08818   0.09099   0.14252   0.15023   0.20003
 Alpha virt. eigenvalues --    0.20659   0.23919   0.25217   0.29312   0.32884

 Mulliken atomic charges:
              1
     1  C   -0.448003
     2  C   -0.429865
     3  H    0.149191
     4  H    0.142741
     5  H    0.153173
     6  H    0.141683
     7  H    0.144983
     8  H    0.146099
 Sum of Mulliken atomic charges =  -0.00000

 Dipole moment (field-independent basis, Debye):
    X=             -0.0600    Y=             -0.1580    Z=             -0.0069  Tot=              0.1692
 Quadrupole moment (field-independent basis, Debye-Ang):
   XX=            -14.7584   YY=            -15.4113   ZZ=            -15.8469
   XY=             -0.1431   XZ=              0.1729   YZ=             -0.1489

 Optimization completed.
    -- Stationary point found.
 Normal termination of Gaussian 09 at Wed May 26 19:17:30 2021.
