 Gaussian 09, Revision A.02,
 Gaussian 09:  EM64L-G09RevA.02 11-Jun-2009

 --------------------------------
 #p b3lyp/6-31+g(d,p) force nosym
 --------------------------------

 -------------
 c2h6 molecule
 -------------
 Symbolic Z-matrix:
 Charge =  0 Multiplicity = 1

                          Input orientation:
 ---------------------------------------------------------------------
 Center     Atomic      Atomic             Coordinates (Angstroms)
 Number     Number       Type             X           Y           Z
 ---------------------------------------------------------------------
      1          6           0        0.000000    0.000000    0.000000
      2          6           0        0.000000    0.000000    1.476019
      3          1           0        0.104790    0.000000   -1.139963
      4          1           0       -0.560236   -1.105740   -0.374395
      5          1           0       -1.083854    0.078613   -0.303672
      6          1           0       -1.064294    0.000459    1.786345
      7          1           0        0.557610   -0.952412    1.798354
      8          1           0        0.039270    0.067950    2.508670
 ---------------------------------------------------------------------

 SCF Done:  E(RB3LYP) =  -79.5868188140     A.U. after   11 cycles

 Alpha  occ. eigenvalues --  -10.22387 -10.20364  -0.78632  -0.67725  -0.49585
 Alpha  occ. eigenvalues --   -0.44270  -0.36564  -0.29615  -0.23820
 Alpha virt. eigenvalues --   -0.01357  -0.00229   0.04276   0.05119   0.06021
 Alpha virt. eigenvalues --    0.07355   0.08918   0.09636   0.11498   0.16052
 Alpha virt. eigenvalues --    0.17929   0.20320   0.24614   0.27558   0.40428

 Mulliken atomic charges:
              1
     1  C   -0.357543
     2  C   -0.454595
     3  H    0.195636
     4  H    0.044852
     5  H    0.105421
     6  H    0.139944
     7  H    0.136892
     8  H    0.189392
 Sum of Mulliken atomic charges =  -0.00000

 Dipole moment (field-independent basis, Debye):
    X=             -0.9159    Y=             -0.5810    Z=              0.4323  Tot=              1.1676
 Quadrupole moment (field-independent basis, Debye-Ang):
   XX=            -16.0947   YY=            -18.2928   ZZ=            -11.9647
   XY=             -0.3566   XZ=             -0.1924   YZ=             -0.7072

 Optimization completed.
    -- Stationary point found.
 Normal termination of Gaussian 09 at Wed May 26 19:11:29 2021.
