 Gaussian 09, Revision A.02,
 Gaussian 09:  EM64L-G09RevA.02 11-Jun-2009

 --------------------------------
 #p b3lyp/6-31+g(d,p) force nosym
 --------------------------------

 -------------
 c2h6 molecule
 -------------
 Symbolic Z-matrix:
 Charge =  0 Multiplicity = 1

                          Input orientation:
 ---------------------------------------------------------------------
 Center     Atomic      Atomic             Coordinates (Angstroms)
 Number     Number       Type             X           Y           Z
 ---------------------------------------------------------------------
      1          6           0        0.000000    0.000000    0.000000
      2          6           0        0.000000    0.000000    1.736320
      3          1           0        0.558984    0.000000   -0.937644
      4          1           0       -0.155355   -1.092467    0.045621
      5          1           0       -0.995382    0.423263    0.087244
      6          1           0       -1.087286    0.003330    1.733326
      7          1           0        0.583859   -0.924148    1.737030
      8          1           0        0.230984    0.397253    2.739369
 ---------------------------------------------------------------------

 SCF Done:  E(RB3LYP) =  -79.7199214870     A.U. after   10 cycles

 Alpha  occ. eigenvalues --  -10.19976 -10.19905  -0.75140  -0.62966  -0.47320
 Alpha  occ. eigenvalues --   -0.43269  -0.36846  -0.32708  -0.28896
 Alpha virt. eigenvalues --    0.00206   0.00935   0.04944   0.05817   0.06600
 Alpha virt. eigenvalues --    0.07340   0.08654   0.10286   0.14609   0.15448
 Alpha virt. eigenvalues --    0.19658   0.21389   0.25240   0.29250   0.32629

 Mulliken atomic charges:
              1
     1  C   -0.450699
     2  C   -0.433229
     3  H    0.154201
     4  H    0.143434
     5  H    0.154414
     6  H    0.133808
     7  H    0.145562
     8  H    0.152509
 Sum of Mulliken atomic charges =  -0.00000

 Dipole moment (field-independent basis, Debye):
    X=             -0.2414    Y=             -0.5117    Z=             -0.0207  Tot=              0.5662
 Quadrupole moment (field-independent basis, Debye-Ang):
   XX=            -15.4610   YY=            -16.3784   ZZ=            -14.7971
   XY=             -1.0825   XZ=             -0.7498   YZ=              0.2018

 Optimization completed.
    -- Stationary point found.
 Normal termination of Gaussian 09 at Wed May 26 19:12:18 2021.
