 Gaussian 09, Revision A.02,
 Gaussian 09:  EM64L-G09RevA.02 11-Jun-2009

 --------------------------------
 #p b3lyp/6-31+g(d,p) force nosym
 --------------------------------

 -------------
 c2h6 molecule
 -------------
 Symbolic Z-matrix:
 Charge =  0 Multiplicity = 1

                          Input orientation:
 ---------------------------------------------------------------------
 Center     Atomic      Atomic             Coordinates (Angstroms)
 Number     Number       Type             X           Y           Z
 ---------------------------------------------------------------------
      1          6           0        0.000000    0.000000    0.000000
      2          6           0        0.000000    0.000000    1.558792
      3          1           0        0.859848    0.000000   -0.725709
      4          1           0       -0.318740   -1.110455   -0.117522
      5          1           0       -0.836812    0.477456   -0.490823
      6          1           0       -1.089422    0.001089    1.786003
      7          1           0        0.289254   -0.993117    1.899940
      8          1           0        0.468694    0.789081    2.096389
 ---------------------------------------------------------------------

 SCF Done:  E(RB3LYP) =  -79.8150588266     A.U. after    9 cycles

 Alpha  occ. eigenvalues --  -10.18788 -10.18499  -0.75250  -0.62112  -0.43900
 Alpha  occ. eigenvalues --   -0.42944  -0.37747  -0.34158  -0.32456
 Alpha virt. eigenvalues --    0.01387   0.02642   0.05356   0.05501   0.07909
 Alpha virt. eigenvalues --    0.08854   0.09029   0.13534   0.14553   0.18217
 Alpha virt. eigenvalues --    0.21550   0.23559   0.25667   0.28417   0.32535

 Mulliken atomic charges:
              1
     1  C   -0.435814
     2  C   -0.448114
     3  H    0.149121
     4  H    0.127319
     5  H    0.154970
     6  H    0.147203
     7  H    0.152921
     8  H    0.152395
 Sum of Mulliken atomic charges =   0.00000

 Dipole moment (field-independent basis, Debye):
    X=             -0.1740    Y=             -0.1819    Z=              0.0671  Tot=              0.2605
 Quadrupole moment (field-independent basis, Debye-Ang):
   XX=            -15.3440   YY=            -15.4281   ZZ=            -15.2029
   XY=             -0.0464   XZ=             -0.1777   YZ=             -0.1405

 Optimization completed.
    -- Stationary point found.
 Normal termination of Gaussian 09 at Wed May 26 19:16:09 2021.
