 Gaussian 09, Revision A.02,
 Gaussian 09:  EM64L-G09RevA.02 11-Jun-2009

 --------------------------------
 #p b3lyp/6-31+g(d,p) force nosym
 --------------------------------

 -------------
 c2h6 molecule
 -------------
 Symbolic Z-matrix:
 Charge =  0 Multiplicity = 1

                          Input orientation:
 ---------------------------------------------------------------------
 Center     Atomic      Atomic             Coordinates (Angstroms)
 Number     Number       Type             X           Y           Z
 ---------------------------------------------------------------------
      1          6           0        0.000000    0.000000    0.000000
      2          6           0        0.000000    0.000000    3.442090
      3          1           0        0.020023    0.000000   -1.133191
      4          1           0       -0.552718   -0.957640   -0.402296
      5          1           0       -1.098559    0.019331   -0.378153
      6          1           0       -1.046820    0.000001    3.802425
      7          1           0        0.523315   -0.906388    3.802352
      8          1           0        0.010315    0.017867    4.612395
 ---------------------------------------------------------------------

 SCF Done:  E(RB3LYP) =  -79.3498262057     A.U. after   20 cycles

 Alpha  occ. eigenvalues --  -10.27775 -10.22261  -0.75429  -0.72146  -0.45470
 Alpha  occ. eigenvalues --   -0.34611  -0.33345  -0.28204  -0.27215
 Alpha virt. eigenvalues --   -0.23462  -0.01126   0.01358   0.05289   0.06309
 Alpha virt. eigenvalues --    0.07566   0.08915   0.09348   0.11137   0.12782
 Alpha virt. eigenvalues --    0.14847   0.16525   0.19970   0.21928   0.22934

 Mulliken atomic charges:
              1
     1  C   -0.367463
     2  C   -0.316768
     3  H    0.117085
     4  H    0.054807
     5  H    0.064321
     6  H    0.175377
     7  H    0.176263
     8  H    0.096378
 Sum of Mulliken atomic charges =  -0.00000

 Dipole moment (field-independent basis, Debye):
    X=             -1.1442    Y=             -1.0540    Z=              2.6852  Tot=              3.1033
 Quadrupole moment (field-independent basis, Debye-Ang):
   XX=            -16.6603   YY=            -18.3294   ZZ=              1.2724
   XY=              0.3798   XZ=             -0.4984   YZ=             -2.0396

 Optimization completed.
    -- Stationary point found.
 Normal termination of Gaussian 09 at Wed May 26 19:08:32 2021.
