 Gaussian 09, Revision A.02,
 Gaussian 09:  EM64L-G09RevA.02 11-Jun-2009

 --------------------------------
 #p b3lyp/6-31+g(d,p) force nosym
 --------------------------------

 -------------
 c2h6 molecule
 -------------
 Symbolic Z-matrix:
 Charge =  0 Multiplicity = 1

                          Input orientation:
 ---------------------------------------------------------------------
 Center     Atomic      Atomic             Coordinates (Angstroms)
 Number     Number       Type             X           Y           Z
 ---------------------------------------------------------------------
      1          6           0        0.000000    0.000000    0.000000
      2          6           0        0.000000    0.000000    1.567850
      3          1           0        0.817950    0.000000   -0.727670
      4          1           0       -0.268872   -1.073295   -0.032317
      5          1           0       -0.841176    0.481711   -0.508002
      6          1           0       -1.083472    0.013129    1.748850
      7          1           0        0.231230   -1.024674    1.864158
      8          1           0        0.491800    0.829682    2.074749
 ---------------------------------------------------------------------

 SCF Done:  E(RB3LYP) =  -79.8102469027     A.U. after   10 cycles

 Alpha  occ. eigenvalues --  -10.18748 -10.17923  -0.75648  -0.62054  -0.44766
 Alpha  occ. eigenvalues --   -0.42808  -0.37612  -0.33895  -0.32455
 Alpha virt. eigenvalues --    0.01442   0.02719   0.05248   0.05563   0.07881
 Alpha virt. eigenvalues --    0.08839   0.09052   0.13775   0.14395   0.18655
 Alpha virt. eigenvalues --    0.21641   0.24039   0.24949   0.28583   0.32790

 Mulliken atomic charges:
              1
     1  C   -0.428934
     2  C   -0.459908
     3  H    0.149611
     4  H    0.133096
     5  H    0.149149
     6  H    0.152560
     7  H    0.153632
     8  H    0.150795
 Sum of Mulliken atomic charges =   0.00000

 Dipole moment (field-independent basis, Debye):
    X=             -0.1923    Y=             -0.2373    Z=              0.0452  Tot=              0.3088
 Quadrupole moment (field-independent basis, Debye-Ang):
   XX=            -15.4066   YY=            -15.1625   ZZ=            -15.4330
   XY=              0.0137   XZ=             -0.2700   YZ=             -0.2195

 Optimization completed.
    -- Stationary point found.
 Normal termination of Gaussian 09 at Wed May 26 19:15:05 2021.
