 Gaussian 09, Revision A.02,
 Gaussian 09:  EM64L-G09RevA.02 11-Jun-2009

 --------------------------------
 #p b3lyp/6-31+g(d,p) force nosym
 --------------------------------

 -------------
 c2h6 molecule
 -------------
 Symbolic Z-matrix:
 Charge =  0 Multiplicity = 1

                          Input orientation:
 ---------------------------------------------------------------------
 Center     Atomic      Atomic             Coordinates (Angstroms)
 Number     Number       Type             X           Y           Z
 ---------------------------------------------------------------------
      1          6           0        0.000000    0.000000    0.000000
      2          6           0        0.000000    0.000000    1.536958
      3          1           0        1.015946    0.000000   -0.403790
      4          1           0       -0.319385   -1.020076   -0.276197
      5          1           0       -0.786543    0.610125   -0.442630
      6          1           0       -1.053614    0.016357    1.840149
      7          1           0        0.382439   -0.920865    1.992940
      8          1           0        0.557193    0.825902    1.989454
 ---------------------------------------------------------------------

 SCF Done:  E(RB3LYP) =  -79.8318947908     A.U. after    9 cycles

 Alpha  occ. eigenvalues --  -10.17897 -10.17786  -0.75405  -0.61773  -0.44646
 Alpha  occ. eigenvalues --   -0.42681  -0.37167  -0.34733  -0.33081
 Alpha virt. eigenvalues --    0.01685   0.03013   0.05171   0.05533   0.08010
 Alpha virt. eigenvalues --    0.08823   0.09100   0.14265   0.15056   0.20020
 Alpha virt. eigenvalues --    0.20651   0.23943   0.25338   0.29333   0.32919

 Mulliken atomic charges:
              1
     1  C   -0.447798
     2  C   -0.429815
     3  H    0.149071
     4  H    0.142756
     5  H    0.153067
     6  H    0.141813
     7  H    0.144900
     8  H    0.146006
 Sum of Mulliken atomic charges =   0.00000

 Dipole moment (field-independent basis, Debye):
    X=             -0.0639    Y=             -0.1611    Z=             -0.0083  Tot=              0.1735
 Quadrupole moment (field-independent basis, Debye-Ang):
   XX=            -14.7652   YY=            -15.4093   ZZ=            -15.8303
   XY=             -0.1389   XZ=              0.1621   YZ=             -0.1467

 Optimization completed.
    -- Stationary point found.
 Normal termination of Gaussian 09 at Wed May 26 19:17:45 2021.
