 Gaussian 09, Revision A.02,
 Gaussian 09:  EM64L-G09RevA.02 11-Jun-2009

 --------------------------------
 #p b3lyp/6-31+g(d,p) force nosym
 --------------------------------

 -------------
 c2h6 molecule
 -------------
 Symbolic Z-matrix:
 Charge =  0 Multiplicity = 1

                          Input orientation:
 ---------------------------------------------------------------------
 Center     Atomic      Atomic             Coordinates (Angstroms)
 Number     Number       Type             X           Y           Z
 ---------------------------------------------------------------------
      1          6           0        0.000000    0.000000    0.000000
      2          6           0        0.000000    0.000000    1.547174
      3          1           0        0.918629    0.000000   -0.661573
      4          1           0       -0.342856   -1.111784   -0.190007
      5          1           0       -0.825081    0.501915   -0.478185
      6          1           0       -1.084907    0.000000    1.810568
      7          1           0        0.328362   -0.965620    1.931652
      8          1           0        0.478901    0.783712    2.077993
 ---------------------------------------------------------------------

 SCF Done:  E(RB3LYP) =  -79.8200303393     A.U. after    9 cycles

 Alpha  occ. eigenvalues --  -10.19013 -10.18259  -0.75161  -0.62020  -0.43365
 Alpha  occ. eigenvalues --   -0.43184  -0.37872  -0.34446  -0.32389
 Alpha virt. eigenvalues --    0.01427   0.02707   0.05348   0.05468   0.07965
 Alpha virt. eigenvalues --    0.08837   0.09044   0.13564   0.14518   0.18347
 Alpha virt. eigenvalues --    0.21385   0.23822   0.25633   0.28568   0.32438

 Mulliken atomic charges:
              1
     1  C   -0.440109
     2  C   -0.438554
     3  H    0.148329
     4  H    0.126334
     5  H    0.157115
     6  H    0.143795
     7  H    0.150924
     8  H    0.152166
 Sum of Mulliken atomic charges =  -0.00000

 Dipole moment (field-independent basis, Debye):
    X=             -0.1344    Y=             -0.1434    Z=              0.0620  Tot=              0.2061
 Quadrupole moment (field-independent basis, Debye-Ang):
   XX=            -15.1885   YY=            -15.5464   ZZ=            -15.2610
   XY=             -0.0862   XZ=             -0.0853   YZ=             -0.1140

 Optimization completed.
    -- Stationary point found.
 Normal termination of Gaussian 09 at Wed May 26 19:16:18 2021.
