 Gaussian 09, Revision A.02,
 Gaussian 09:  EM64L-G09RevA.02 11-Jun-2009

 --------------------------------
 #p b3lyp/6-31+g(d,p) force nosym
 --------------------------------

 -------------
 c2h6 molecule
 -------------
 Symbolic Z-matrix:
 Charge =  0 Multiplicity = 1

                          Input orientation:
 ---------------------------------------------------------------------
 Center     Atomic      Atomic             Coordinates (Angstroms)
 Number     Number       Type             X           Y           Z
 ---------------------------------------------------------------------
      1          6           0        0.000000    0.000000    0.000000
      2          6           0        0.000000    0.000000    1.540938
      3          1           0        1.029808    0.000000   -0.356711
      4          1           0       -0.512704   -0.888028   -0.374811
      5          1           0       -0.517119    0.895934   -0.358322
      6          1           0       -1.033361    0.000000    1.898959
      7          1           0        0.515869   -0.893510    1.898398
      8          1           0        0.517076    0.895602    1.899133
 ---------------------------------------------------------------------

 SCF Done:  E(RB3LYP) =  -79.8405120014     A.U. after    9 cycles

 Alpha  occ. eigenvalues --  -10.17677 -10.17616  -0.75382  -0.61324  -0.43946
 Alpha  occ. eigenvalues --   -0.43868  -0.35741  -0.34742  -0.34698
 Alpha virt. eigenvalues --    0.01750   0.03186   0.05274   0.05287   0.07957
 Alpha virt. eigenvalues --    0.08973   0.08979   0.14255   0.19019   0.19084
 Alpha virt. eigenvalues --    0.20480   0.20622   0.24766   0.29466   0.32898

 Mulliken atomic charges:
              1
     1  C   -0.434785
     2  C   -0.435184
     3  H    0.145247
     4  H    0.145079
     5  H    0.144513
     6  H    0.144949
     7  H    0.145153
     8  H    0.145028
 Sum of Mulliken atomic charges =  -0.00000

 Dipole moment (field-independent basis, Debye):
    X=              0.0029    Y=             -0.0033    Z=             -0.0038  Tot=              0.0059
 Quadrupole moment (field-independent basis, Debye-Ang):
   XX=            -14.9364   YY=            -14.9438   ZZ=            -16.1857
   XY=             -0.0069   XZ=              0.0127   YZ=              0.0201

 Optimization completed.
    -- Stationary point found.
 Normal termination of Gaussian 09 at Thu May 27 13:54:42 2021.
