 Gaussian 09, Revision A.02,
 Gaussian 09:  EM64L-G09RevA.02 11-Jun-2009

 --------------------------------
 #p b3lyp/6-31+g(d,p) force nosym
 --------------------------------

 -------------
 c2h6 molecule
 -------------
 Symbolic Z-matrix:
 Charge =  0 Multiplicity = 1

                          Input orientation:
 ---------------------------------------------------------------------
 Center     Atomic      Atomic             Coordinates (Angstroms)
 Number     Number       Type             X           Y           Z
 ---------------------------------------------------------------------
      1          6           0        0.000000    0.000000    0.000000
      2          6           0        0.000000    0.000000    1.692744
      3          1           0        0.945282    0.000000   -0.326253
      4          1           0       -0.469721   -0.813580   -0.342711
      5          1           0       -0.472651    0.818633   -0.326252
      6          1           0       -0.945287    0.000000    2.018983
      7          1           0        0.472644   -0.818643    2.018983
      8          1           0        0.472644    0.818642    2.018984
 ---------------------------------------------------------------------

 SCF Done:  E(RB3LYP) =  -79.7941423947     A.U. after    9 cycles

 Alpha  occ. eigenvalues --  -10.15410 -10.15378  -0.74887  -0.65375  -0.44245
 Alpha  occ. eigenvalues --   -0.44174  -0.37521  -0.37484  -0.33444
 Alpha virt. eigenvalues --    0.02069   0.02851   0.05738   0.05750   0.08717
 Alpha virt. eigenvalues --    0.09005   0.09011   0.14620   0.19061   0.21497
 Alpha virt. eigenvalues --    0.21569   0.24042   0.24164   0.32293   0.35957

 Mulliken atomic charges:
              1
     1  C   -0.451369
     2  C   -0.451542
     3  H    0.150399
     4  H    0.150215
     5  H    0.150405
     6  H    0.150617
     7  H    0.150622
     8  H    0.150654
 Sum of Mulliken atomic charges =  -0.00000

 Dipole moment (field-independent basis, Debye):
    X=              0.0007    Y=              0.0012    Z=             -0.0015  Tot=              0.0020
 Quadrupole moment (field-independent basis, Debye-Ang):
   XX=            -14.6086   YY=            -14.6178   ZZ=            -15.1034
   XY=             -0.0079   XZ=              0.0111   YZ=              0.0192

 Optimization completed.
    -- Stationary point found.
 Normal termination of Gaussian 09 at Thu May 27 13:52:59 2021.
