 Gaussian 09, Revision A.02,
 Gaussian 09:  EM64L-G09RevA.02 11-Jun-2009

 --------------------------------
 #p b3lyp/6-31+g(d,p) force nosym
 --------------------------------

 -------------
 c2h6 molecule
 -------------
 Symbolic Z-matrix:
 Charge =  0 Multiplicity = 1

                          Input orientation:
 ---------------------------------------------------------------------
 Center     Atomic      Atomic             Coordinates (Angstroms)
 Number     Number       Type             X           Y           Z
 ---------------------------------------------------------------------
      1          6           0        0.000000    0.000000    0.000000
      2          6           0        0.000000    0.000000    3.591379
      3          1           0        1.027662    0.000000   -0.353866
      4          1           0       -0.510385   -0.884011   -0.371540
      5          1           0       -0.513243    0.888964   -0.353460
      6          1           0       -1.027304    0.000000    3.945122
      7          1           0        0.513191   -0.888873    3.944803
      8          1           0        0.513154    0.888809    3.944778
 ---------------------------------------------------------------------

 SCF Done:  E(RB3LYP) =  -79.6360561234     A.U. after   10 cycles

 Alpha  occ. eigenvalues --  -10.22408 -10.22317  -0.68698  -0.68444  -0.41179
 Alpha  occ. eigenvalues --   -0.41163  -0.41005  -0.40917  -0.21719
 Alpha virt. eigenvalues --   -0.14688   0.01388   0.03123   0.05533   0.05539
 Alpha virt. eigenvalues --    0.07987   0.07995   0.10897   0.12515   0.17961
 Alpha virt. eigenvalues --    0.18020   0.19958   0.19980   0.24866   0.31374

 Mulliken atomic charges:
              1
     1  C   -0.478843
     2  C   -0.475882
     3  H    0.158906
     4  H    0.158478
     5  H    0.159050
     6  H    0.159375
     7  H    0.159488
     8  H    0.159428
 Sum of Mulliken atomic charges =   0.00000

 Dipole moment (field-independent basis, Debye):
    X=              0.0047    Y=              0.0084    Z=              0.0275  Tot=              0.0291
 Quadrupole moment (field-independent basis, Debye-Ang):
   XX=            -15.5733   YY=            -15.5871   ZZ=            -10.6278
   XY=             -0.0105   XZ=              0.0122   YZ=              0.0190

 Optimization completed.
    -- Stationary point found.
 Normal termination of Gaussian 09 at Thu May 27 13:49:58 2021.
