 Gaussian 09, Revision A.02,
 Gaussian 09:  EM64L-G09RevA.02 11-Jun-2009

 --------------------------------
 #p b3lyp/6-31+g(d,p) force nosym
 --------------------------------

 -------------
 c2h6 molecule
 -------------
 Symbolic Z-matrix:
 Charge =  0 Multiplicity = 1

                          Input orientation:
 ---------------------------------------------------------------------
 Center     Atomic      Atomic             Coordinates (Angstroms)
 Number     Number       Type             X           Y           Z
 ---------------------------------------------------------------------
      1          6           0        0.000000    0.000000    0.000000
      2          6           0        0.000000    0.000000    1.798840
      3          1           0        1.144818    0.000000   -0.393467
      4          1           0       -0.584965   -1.013188   -0.425049
      5          1           0       -0.596530    1.033245   -0.410053
      6          1           0       -1.146877    0.000000    2.193030
      7          1           0        0.592959   -1.027035    2.206446
      8          1           0        0.596484    1.033139    2.208868
 ---------------------------------------------------------------------

 SCF Done:  E(RB3LYP) =  -79.7551163652     A.U. after    9 cycles

 Alpha  occ. eigenvalues --  -10.23986 -10.23859  -0.68995  -0.59276  -0.40156
 Alpha  occ. eigenvalues --   -0.39588  -0.34646  -0.34067  -0.32550
 Alpha virt. eigenvalues --    0.00653   0.01151   0.05223   0.05296   0.07560
 Alpha virt. eigenvalues --    0.08335   0.08351   0.11271   0.14077   0.14765
 Alpha virt. eigenvalues --    0.14989   0.15178   0.15744   0.24594   0.25914

 Mulliken atomic charges:
              1
     1  C   -0.411666
     2  C   -0.409074
     3  H    0.142421
     4  H    0.135592
     5  H    0.132522
     6  H    0.142539
     7  H    0.134316
     8  H    0.133351
 Sum of Mulliken atomic charges =  -0.00000

 Dipole moment (field-independent basis, Debye):
    X=             -0.0015    Y=             -0.0183    Z=             -0.0027  Tot=              0.0186
 Quadrupole moment (field-independent basis, Debye-Ang):
   XX=            -15.6627   YY=            -15.6737   ZZ=            -16.6213
   XY=             -0.0078   XZ=             -0.0767   YZ=              0.0187

 Optimization completed.
    -- Stationary point found.
 Normal termination of Gaussian 09 at Thu May 27 13:52:27 2021.
