 Gaussian 09, Revision A.02,
 Gaussian 09:  EM64L-G09RevA.02 11-Jun-2009

 --------------------------------
 #p b3lyp/6-31+g(d,p) force nosym
 --------------------------------

 -------------
 c2h6 molecule
 -------------
 Symbolic Z-matrix:
 Charge =  0 Multiplicity = 1

                          Input orientation:
 ---------------------------------------------------------------------
 Center     Atomic      Atomic             Coordinates (Angstroms)
 Number     Number       Type             X           Y           Z
 ---------------------------------------------------------------------
      1          6           0        0.000000    0.000000    0.000000
      2          6           0        0.000000    0.000000    1.536930
      3          1           0        1.028470    0.000000   -0.358698
      4          1           0       -0.511901   -0.886636   -0.375947
      5          1           0       -0.516926    0.895966   -0.360763
      6          1           0       -1.033283    0.000000    1.897500
      7          1           0        0.514515   -0.891165    1.896021
      8          1           0        0.517434    0.896222    1.897818
 ---------------------------------------------------------------------

 SCF Done:  E(RB3LYP) =  -79.8405878369     A.U. after    9 cycles

 Alpha  occ. eigenvalues --  -10.17656 -10.17584  -0.75449  -0.61326  -0.43960
 Alpha  occ. eigenvalues --   -0.43882  -0.35851  -0.34702  -0.34659
 Alpha virt. eigenvalues --    0.01752   0.03190   0.05272   0.05284   0.07959
 Alpha virt. eigenvalues --    0.08976   0.08982   0.14266   0.19056   0.19108
 Alpha virt. eigenvalues --    0.20455   0.20597   0.24938   0.29489   0.32933

 Mulliken atomic charges:
              1
     1  C   -0.434475
     2  C   -0.434800
     3  H    0.145198
     4  H    0.145097
     5  H    0.144291
     6  H    0.144707
     7  H    0.145323
     8  H    0.144659
 Sum of Mulliken atomic charges =  -0.00000

 Dipole moment (field-independent basis, Debye):
    X=              0.0040    Y=             -0.0067    Z=             -0.0044  Tot=              0.0089
 Quadrupole moment (field-independent basis, Debye-Ang):
   XX=            -14.9403   YY=            -14.9469   ZZ=            -16.1691
   XY=             -0.0064   XZ=              0.0133   YZ=              0.0152

 Optimization completed.
    -- Stationary point found.
 Normal termination of Gaussian 09 at Thu May 27 13:54:57 2021.
