 Gaussian 09, Revision A.02,
 Gaussian 09:  EM64L-G09RevA.02 11-Jun-2009

 --------------------------------
 #p b3lyp/6-31+g(d,p) force nosym
 --------------------------------

 -------------
 c2h6 molecule
 -------------
 Symbolic Z-matrix:
 Charge =  0 Multiplicity = 1

                          Input orientation:
 ---------------------------------------------------------------------
 Center     Atomic      Atomic             Coordinates (Angstroms)
 Number     Number       Type             X           Y           Z
 ---------------------------------------------------------------------
      1          6           0        0.000000    0.000000    0.000000
      2          6           0        0.000000    0.000000    1.546941
      3          1           0        1.034703    0.000000   -0.356611
      4          1           0       -0.514113   -0.890469   -0.374577
      5          1           0       -0.517392    0.896143   -0.356635
      6          1           0       -1.034346    0.000000    1.903425
      7          1           0        0.517252   -0.895906    1.903478
      8          1           0        0.517171    0.895765    1.903421
 ---------------------------------------------------------------------

 SCF Done:  E(RB3LYP) =  -79.8404584952     A.U. after    9 cycles

 Alpha  occ. eigenvalues --  -10.17750 -10.17726  -0.75250  -0.61305  -0.43878
 Alpha  occ. eigenvalues --   -0.43810  -0.35623  -0.34769  -0.34735
 Alpha virt. eigenvalues --    0.01742   0.03170   0.05277   0.05292   0.07953
 Alpha virt. eigenvalues --    0.08964   0.08970   0.14226   0.18961   0.19035
 Alpha virt. eigenvalues --    0.20441   0.20567   0.24522   0.29410   0.32784

 Mulliken atomic charges:
              1
     1  C   -0.434973
     2  C   -0.435555
     3  H    0.144901
     4  H    0.145058
     5  H    0.144893
     6  H    0.145153
     7  H    0.145133
     8  H    0.145390
 Sum of Mulliken atomic charges =  -0.00000

 Dipole moment (field-independent basis, Debye):
    X=             -0.0000    Y=              0.0001    Z=             -0.0016  Tot=              0.0016
 Quadrupole moment (field-independent basis, Debye-Ang):
   XX=            -14.9421   YY=            -14.9505   ZZ=            -16.1987
   XY=             -0.0072   XZ=              0.0133   YZ=              0.0234

 Optimization completed.
    -- Stationary point found.
 Normal termination of Gaussian 09 at Thu May 27 13:54:20 2021.
