 Gaussian 09, Revision A.02,
 Gaussian 09:  EM64L-G09RevA.02 11-Jun-2009

 --------------------------------
 #p b3lyp/6-31+g(d,p) force nosym
 --------------------------------

 -------------
 c2h6 molecule
 -------------
 Symbolic Z-matrix:
 Charge =  0 Multiplicity = 1

                          Input orientation:
 ---------------------------------------------------------------------
 Center     Atomic      Atomic             Coordinates (Angstroms)
 Number     Number       Type             X           Y           Z
 ---------------------------------------------------------------------
      1          6           0        0.000000    0.000000    0.000000
      2          6           0        0.000000    0.000000    1.522207
      3          1           0        1.019223    0.000000   -0.386431
      4          1           0       -0.507031   -0.878185   -0.394062
      5          1           0       -0.510742    0.889825   -0.389002
      6          1           0       -1.022125    0.000000    1.911397
      7          1           0        0.507355   -0.878764    1.908623
      8          1           0        0.513495    0.889401    1.911282
 ---------------------------------------------------------------------

 SCF Done:  E(RB3LYP) =  -79.8413705441     A.U. after    9 cycles

 Alpha  occ. eigenvalues --  -10.17595 -10.17556  -0.75593  -0.61614  -0.43747
 Alpha  occ. eigenvalues --   -0.43715  -0.36763  -0.34462  -0.34444
 Alpha virt. eigenvalues --    0.01763   0.03112   0.05327   0.05330   0.08020
 Alpha virt. eigenvalues --    0.08985   0.08987   0.14314   0.19482   0.19514
 Alpha virt. eigenvalues --    0.20081   0.20137   0.25813   0.29777   0.32943

 Mulliken atomic charges:
              1
     1  C   -0.433770
     2  C   -0.433836
     3  H    0.144838
     4  H    0.145185
     5  H    0.143819
     6  H    0.144416
     7  H    0.145543
     8  H    0.143805
 Sum of Mulliken atomic charges =   0.00000

 Dipole moment (field-independent basis, Debye):
    X=              0.0041    Y=             -0.0134    Z=             -0.0019  Tot=              0.0141
 Quadrupole moment (field-independent basis, Debye-Ang):
   XX=            -15.0235   YY=            -15.0197   ZZ=            -15.8708
   XY=             -0.0007   XZ=              0.0057   YZ=             -0.0048

 Optimization completed.
    -- Stationary point found.
 Normal termination of Gaussian 09 at Thu May 27 13:55:26 2021.
