 Gaussian 09, Revision A.02,
 Gaussian 09:  EM64L-G09RevA.02 11-Jun-2009

 --------------------------------
 #p b3lyp/6-31+g(d,p) force nosym
 --------------------------------

 -------------
 c2h6 molecule
 -------------
 Symbolic Z-matrix:
 Charge =  0 Multiplicity = 1

                          Input orientation:
 ---------------------------------------------------------------------
 Center     Atomic      Atomic             Coordinates (Angstroms)
 Number     Number       Type             X           Y           Z
 ---------------------------------------------------------------------
      1          6           0        0.000000    0.000000    0.000000
      2          6           0        0.000000    0.000000    1.545540
      3          1           0        1.031855    0.000000   -0.355910
      4          1           0       -0.514033   -0.890330   -0.374717
      5          1           0       -0.517146    0.895758   -0.356759
      6          1           0       -1.034370    0.000000    1.902325
      7          1           0        0.517617   -0.896538    1.902622
      8          1           0        0.516921    0.895333    1.902126
 ---------------------------------------------------------------------

 SCF Done:  E(RB3LYP) =  -79.8404660009     A.U. after    9 cycles

 Alpha  occ. eigenvalues --  -10.17741 -10.17684  -0.75283  -0.61311  -0.43900
 Alpha  occ. eigenvalues --   -0.43824  -0.35647  -0.34769  -0.34725
 Alpha virt. eigenvalues --    0.01745   0.03175   0.05276   0.05290   0.07954
 Alpha virt. eigenvalues --    0.08966   0.08972   0.14233   0.18974   0.19048
 Alpha virt. eigenvalues --    0.20453   0.20592   0.24578   0.29426   0.32816

 Mulliken atomic charges:
              1
     1  C   -0.435013
     2  C   -0.435427
     3  H    0.145239
     4  H    0.144963
     5  H    0.144827
     6  H    0.145099
     7  H    0.144927
     8  H    0.145384
 Sum of Mulliken atomic charges =  -0.00000

 Dipole moment (field-independent basis, Debye):
    X=              0.0018    Y=              0.0011    Z=             -0.0036  Tot=              0.0042
 Quadrupole moment (field-independent basis, Debye-Ang):
   XX=            -14.9400   YY=            -14.9479   ZZ=            -16.1985
   XY=             -0.0072   XZ=              0.0125   YZ=              0.0247

 Optimization completed.
    -- Stationary point found.
 Normal termination of Gaussian 09 at Thu May 27 13:54:49 2021.
