 Gaussian 09, Revision A.02,
 Gaussian 09:  EM64L-G09RevA.02 11-Jun-2009

 --------------------------------
 #p b3lyp/6-31+g(d,p) force nosym
 --------------------------------

 -------------
 c2h6 molecule
 -------------
 Symbolic Z-matrix:
 Charge =  0 Multiplicity = 1

                          Input orientation:
 ---------------------------------------------------------------------
 Center     Atomic      Atomic             Coordinates (Angstroms)
 Number     Number       Type             X           Y           Z
 ---------------------------------------------------------------------
      1          6           0        0.000000    0.000000    0.000000
      2          6           0        0.000000    0.000000    1.509178
      3          1           0        1.005307    0.000000   -0.346615
      4          1           0       -0.503325   -0.871784   -0.366861
      5          1           0       -0.508831    0.881309   -0.350869
      6          1           0       -1.005519    0.000000    1.855858
      7          1           0        0.507768   -0.879480    1.859310
      8          1           0        0.508690    0.881077    1.859946
 ---------------------------------------------------------------------

 SCF Done:  E(RB3LYP) =  -79.8373783285     A.U. after    9 cycles

 Alpha  occ. eigenvalues --  -10.16669 -10.16615  -0.76390  -0.61693  -0.44692
 Alpha  occ. eigenvalues --   -0.44494  -0.36110  -0.34869  -0.34695
 Alpha virt. eigenvalues --    0.01848   0.03342   0.05267   0.05280   0.08031
 Alpha virt. eigenvalues --    0.09045   0.09054   0.14522   0.19423   0.19571
 Alpha virt. eigenvalues --    0.21356   0.21710   0.25996   0.30034   0.34093

 Mulliken atomic charges:
              1
     1  C   -0.434700
     2  C   -0.435460
     3  H    0.146032
     4  H    0.144861
     5  H    0.144008
     6  H    0.146203
     7  H    0.144512
     8  H    0.144545
 Sum of Mulliken atomic charges =  -0.00000

 Dipole moment (field-independent basis, Debye):
    X=             -0.0006    Y=             -0.0042    Z=             -0.0040  Tot=              0.0059
 Quadrupole moment (field-independent basis, Debye-Ang):
   XX=            -14.8091   YY=            -14.8142   ZZ=            -16.1129
   XY=             -0.0072   XZ=             -0.0037   YZ=              0.0215

 Optimization completed.
    -- Stationary point found.
 Normal termination of Gaussian 09 at Thu May 27 13:53:22 2021.
