 Gaussian 09, Revision A.02,
 Gaussian 09:  EM64L-G09RevA.02 11-Jun-2009

 --------------------------------
 #p b3lyp/6-31+g(d,p) force nosym
 --------------------------------

 -------------
 c2h6 molecule
 -------------
 Symbolic Z-matrix:
 Charge =  0 Multiplicity = 1

                          Input orientation:
 ---------------------------------------------------------------------
 Center     Atomic      Atomic             Coordinates (Angstroms)
 Number     Number       Type             X           Y           Z
 ---------------------------------------------------------------------
      1          6           0        0.000000    0.000000    0.000000
      2          6           0        0.000000    0.000000    1.533536
      3          1           0        1.027100    0.000000   -0.361095
      4          1           0       -0.510956   -0.884997   -0.377274
      5          1           0       -0.516420    0.895517   -0.363434
      6          1           0       -1.032029    0.000000    1.896694
      7          1           0        0.513193   -0.888875    1.894717
      8          1           0        0.517263    0.895925    1.897177
 ---------------------------------------------------------------------

 SCF Done:  E(RB3LYP) =  -79.8406671605     A.U. after    9 cycles

 Alpha  occ. eigenvalues --  -10.17620 -10.17549  -0.75508  -0.61350  -0.43969
 Alpha  occ. eigenvalues --   -0.43893  -0.35961  -0.34670  -0.34630
 Alpha virt. eigenvalues --    0.01756   0.03190   0.05274   0.05285   0.07964
 Alpha virt. eigenvalues --    0.08980   0.08986   0.14279   0.19106   0.19151
 Alpha virt. eigenvalues --    0.20441   0.20579   0.25096   0.29530   0.32973

 Mulliken atomic charges:
              1
     1  C   -0.434275
     2  C   -0.434576
     3  H    0.145132
     4  H    0.145141
     5  H    0.144124
     6  H    0.144605
     7  H    0.145436
     8  H    0.144413
 Sum of Mulliken atomic charges =   0.00000

 Dipole moment (field-independent basis, Debye):
    X=              0.0042    Y=             -0.0092    Z=             -0.0043  Tot=              0.0110
 Quadrupole moment (field-independent basis, Debye-Ang):
   XX=            -14.9441   YY=            -14.9498   ZZ=            -16.1427
   XY=             -0.0058   XZ=              0.0129   YZ=              0.0115

 Optimization completed.
    -- Stationary point found.
 Normal termination of Gaussian 09 at Thu May 27 13:55:04 2021.
