 Gaussian 09, Revision A.02,
 Gaussian 09:  EM64L-G09RevA.02 11-Jun-2009

 --------------------------------
 #p b3lyp/6-31+g(d,p) force nosym
 --------------------------------

 -------------
 c2h6 molecule
 -------------
 Symbolic Z-matrix:
 Charge =  0 Multiplicity = 1

                          Input orientation:
 ---------------------------------------------------------------------
 Center     Atomic      Atomic             Coordinates (Angstroms)
 Number     Number       Type             X           Y           Z
 ---------------------------------------------------------------------
      1          6           0        0.000000    0.000000    0.000000
      2          6           0        0.000000    0.000000    3.548482
      3          1           0        1.032311    0.000000   -0.355455
      4          1           0       -0.513139   -0.888782   -0.373532
      5          1           0       -0.516283    0.894229   -0.355541
      6          1           0       -1.031953    0.000000    3.903814
      7          1           0        0.516141   -0.893982    3.903926
      8          1           0        0.516194    0.894073    3.903962
 ---------------------------------------------------------------------

 SCF Done:  E(RB3LYP) =  -79.6380073265     A.U. after   10 cycles

 Alpha  occ. eigenvalues --  -10.22574 -10.22480  -0.68515  -0.68242  -0.41054
 Alpha  occ. eigenvalues --   -0.41031  -0.40869  -0.40780  -0.21801
 Alpha virt. eigenvalues --   -0.14545   0.01380   0.03145   0.05554   0.05560
 Alpha virt. eigenvalues --    0.07984   0.07992   0.10893   0.12445   0.17784
 Alpha virt. eigenvalues --    0.17852   0.19804   0.19821   0.24783   0.31214

 Mulliken atomic charges:
              1
     1  C   -0.477873
     2  C   -0.474882
     3  H    0.158676
     4  H    0.158127
     5  H    0.158641
     6  H    0.159160
     7  H    0.159117
     8  H    0.159034
 Sum of Mulliken atomic charges =  -0.00000

 Dipole moment (field-independent basis, Debye):
    X=              0.0046    Y=              0.0081    Z=              0.0273  Tot=              0.0288
 Quadrupole moment (field-independent basis, Debye-Ang):
   XX=            -15.5870   YY=            -15.5989   ZZ=            -10.7577
   XY=             -0.0107   XZ=              0.0104   YZ=              0.0188

 Optimization completed.
    -- Stationary point found.
 Normal termination of Gaussian 09 at Thu May 27 13:50:14 2021.
