 Gaussian 09, Revision A.02,
 Gaussian 09:  EM64L-G09RevA.02 11-Jun-2009

 --------------------------------
 #p b3lyp/6-31+g(d,p) force nosym
 --------------------------------

 -------------
 c2h6 molecule
 -------------
 Symbolic Z-matrix:
 Charge =  0 Multiplicity = 1

                          Input orientation:
 ---------------------------------------------------------------------
 Center     Atomic      Atomic             Coordinates (Angstroms)
 Number     Number       Type             X           Y           Z
 ---------------------------------------------------------------------
      1          6           0        0.000000    0.000000    0.000000
      2          6           0        0.000000    0.000000    3.508544
      3          1           0        1.031394    0.000000   -0.355128
      4          1           0       -0.512520   -0.887709   -0.373070
      5          1           0       -0.515512    0.892894   -0.355000
      6          1           0       -1.031054    0.000000    3.863556
      7          1           0        0.515483   -0.892841    3.863524
      8          1           0        0.515468    0.892815    3.863513
 ---------------------------------------------------------------------

 SCF Done:  E(RB3LYP) =  -79.6398374892     A.U. after   11 cycles

 Alpha  occ. eigenvalues --  -10.22530 -10.22436  -0.68541  -0.68250  -0.41063
 Alpha  occ. eigenvalues --   -0.41043  -0.40867  -0.40782  -0.21875
 Alpha virt. eigenvalues --   -0.14387   0.01397   0.03183   0.05568   0.05574
 Alpha virt. eigenvalues --    0.07997   0.08005   0.10909   0.12461   0.17850
 Alpha virt. eigenvalues --    0.17915   0.19880   0.19891   0.24964   0.31294

 Mulliken atomic charges:
              1
     1  C   -0.477644
     2  C   -0.474618
     3  H    0.158556
     4  H    0.158046
     5  H    0.158600
     6  H    0.159036
     7  H    0.159046
     8  H    0.158979
 Sum of Mulliken atomic charges =  -0.00000

 Dipole moment (field-independent basis, Debye):
    X=              0.0046    Y=              0.0083    Z=              0.0269  Tot=              0.0285
 Quadrupole moment (field-independent basis, Debye-Ang):
   XX=            -15.5782   YY=            -15.5908   ZZ=            -10.8289
   XY=             -0.0106   XZ=              0.0111   YZ=              0.0190

 Optimization completed.
    -- Stationary point found.
 Normal termination of Gaussian 09 at Thu May 27 13:51:02 2021.
