 Gaussian 09, Revision A.02,
 Gaussian 09:  EM64L-G09RevA.02 11-Jun-2009

 --------------------------------
 #p b3lyp/6-31+g(d,p) force nosym
 --------------------------------

 -------------
 c2h6 molecule
 -------------
 Symbolic Z-matrix:
 Charge =  0 Multiplicity = 1

                          Input orientation:
 ---------------------------------------------------------------------
 Center     Atomic      Atomic             Coordinates (Angstroms)
 Number     Number       Type             X           Y           Z
 ---------------------------------------------------------------------
      1          6           0        0.000000    0.000000    0.000000
      2          6           0        0.000000    0.000000    1.540198
      3          1           0        1.019316    0.000000   -0.395633
      4          1           0       -0.318815   -1.021185   -0.278390
      5          1           0       -0.785651    0.613887   -0.440262
      6          1           0       -1.054465    0.020224    1.843883
      7          1           0        0.381176   -0.920558    1.997332
      8          1           0        0.561679    0.824292    1.989518
 ---------------------------------------------------------------------

 SCF Done:  E(RB3LYP) =  -79.8318645923     A.U. after    9 cycles

 Alpha  occ. eigenvalues --  -10.17942 -10.17803  -0.75339  -0.61758  -0.44655
 Alpha  occ. eigenvalues --   -0.42652  -0.37113  -0.34718  -0.33106
 Alpha virt. eigenvalues --    0.01684   0.03011   0.05167   0.05538   0.08004
 Alpha virt. eigenvalues --    0.08817   0.09099   0.14251   0.15021   0.20003
 Alpha virt. eigenvalues --    0.20659   0.23915   0.25208   0.29310   0.32880

 Mulliken atomic charges:
              1
     1  C   -0.448012
     2  C   -0.429869
     3  H    0.149205
     4  H    0.142735
     5  H    0.153177
     6  H    0.141676
     7  H    0.144981
     8  H    0.146107
 Sum of Mulliken atomic charges =  -0.00000

 Dipole moment (field-independent basis, Debye):
    X=             -0.0596    Y=             -0.1577    Z=             -0.0068  Tot=              0.1687
 Quadrupole moment (field-independent basis, Debye-Ang):
   XX=            -14.7579   YY=            -15.4117   ZZ=            -15.8479
   XY=             -0.1434   XZ=              0.1740   YZ=             -0.1489

 Optimization completed.
    -- Stationary point found.
 Normal termination of Gaussian 09 at Wed May 26 19:17:23 2021.
