 Gaussian 09, Revision A.02,
 Gaussian 09:  EM64L-G09RevA.02 11-Jun-2009

 --------------------------------
 #p b3lyp/6-31+g(d,p) force nosym
 --------------------------------

 -------------
 c2h6 molecule
 -------------
 Symbolic Z-matrix:
 Charge =  0 Multiplicity = 1

                          Input orientation:
 ---------------------------------------------------------------------
 Center     Atomic      Atomic             Coordinates (Angstroms)
 Number     Number       Type             X           Y           Z
 ---------------------------------------------------------------------
      1          6           0        0.000000    0.000000    0.000000
      2          6           0        0.000000    0.000000    1.623300
      3          1           0        0.530908    0.000000   -0.950445
      4          1           0       -0.185889   -1.057057    0.009806
      5          1           0       -1.009127    0.399844    0.030977
      6          1           0       -1.087360    0.003442    1.654592
      7          1           0        0.570833   -0.935468    1.662565
      8          1           0        0.227081    0.390470    2.628022
 ---------------------------------------------------------------------

 SCF Done:  E(RB3LYP) =  -79.7233554717     A.U. after   10 cycles

 Alpha  occ. eigenvalues --  -10.19413 -10.19009  -0.76968  -0.62688  -0.47705
 Alpha  occ. eigenvalues --   -0.43815  -0.36722  -0.32855  -0.28976
 Alpha virt. eigenvalues --    0.00839   0.01355   0.04915   0.05672   0.06708
 Alpha virt. eigenvalues --    0.08194   0.08794   0.11140   0.14702   0.15978
 Alpha virt. eigenvalues --    0.19874   0.21626   0.25958   0.30508   0.34413

 Mulliken atomic charges:
              1
     1  C   -0.453705
     2  C   -0.420412
     3  H    0.153118
     4  H    0.149661
     5  H    0.147277
     6  H    0.131843
     7  H    0.138873
     8  H    0.153345
 Sum of Mulliken atomic charges =  -0.00000

 Dipole moment (field-independent basis, Debye):
    X=             -0.2600    Y=             -0.5271    Z=             -0.0245  Tot=              0.5882
 Quadrupole moment (field-independent basis, Debye-Ang):
   XX=            -15.3891   YY=            -16.2756   ZZ=            -14.8473
   XY=             -0.9538   XZ=             -0.6788   YZ=              0.2457

 Optimization completed.
    -- Stationary point found.
 Normal termination of Gaussian 09 at Wed May 26 19:13:46 2021.
