 Gaussian 09, Revision A.02,
 Gaussian 09:  EM64L-G09RevA.02 11-Jun-2009

 --------------------------------
 #p b3lyp/6-31+g(d,p) force nosym
 --------------------------------

 -------------
 c2h6 molecule
 -------------
 Symbolic Z-matrix:
 Charge =  0 Multiplicity = 1

                          Input orientation:
 ---------------------------------------------------------------------
 Center     Atomic      Atomic             Coordinates (Angstroms)
 Number     Number       Type             X           Y           Z
 ---------------------------------------------------------------------
      1          6           0        0.000000    0.000000    0.000000
      2          6           0        0.000000    0.000000    1.569180
      3          1           0        0.816617    0.000000   -0.734778
      4          1           0       -0.273936   -1.078747   -0.037191
      5          1           0       -0.841857    0.477718   -0.507198
      6          1           0       -1.084351    0.012828    1.753183
      7          1           0        0.233896   -1.023056    1.867455
      8          1           0        0.487788    0.823022    2.081979
 ---------------------------------------------------------------------

 SCF Done:  E(RB3LYP) =  -79.8103557565     A.U. after   10 cycles

 Alpha  occ. eigenvalues --  -10.18744 -10.18041  -0.75575  -0.62091  -0.44707
 Alpha  occ. eigenvalues --   -0.42769  -0.37621  -0.33899  -0.32464
 Alpha virt. eigenvalues --    0.01429   0.02691   0.05262   0.05569   0.07881
 Alpha virt. eigenvalues --    0.08837   0.09050   0.13731   0.14406   0.18554
 Alpha virt. eigenvalues --    0.21648   0.23953   0.25030   0.28551   0.32751

 Mulliken atomic charges:
              1
     1  C   -0.429716
     2  C   -0.459302
     3  H    0.149719
     4  H    0.132286
     5  H    0.149744
     6  H    0.152274
     7  H    0.153820
     8  H    0.151175
 Sum of Mulliken atomic charges =   0.00000

 Dipole moment (field-independent basis, Debye):
    X=             -0.1952    Y=             -0.2330    Z=              0.0513  Tot=              0.3083
 Quadrupole moment (field-independent basis, Debye-Ang):
   XX=            -15.4181   YY=            -15.1934   ZZ=            -15.3773
   XY=              0.0113   XZ=             -0.2648   YZ=             -0.2088

 Optimization completed.
    -- Stationary point found.
 Normal termination of Gaussian 09 at Wed May 26 19:15:33 2021.
