 Gaussian 09, Revision A.02,
 Gaussian 09:  EM64L-G09RevA.02 11-Jun-2009

 --------------------------------
 #p b3lyp/6-31+g(d,p) force nosym
 --------------------------------

 -------------
 c2h6 molecule
 -------------
 Symbolic Z-matrix:
 Charge =  0 Multiplicity = 1

                          Input orientation:
 ---------------------------------------------------------------------
 Center     Atomic      Atomic             Coordinates (Angstroms)
 Number     Number       Type             X           Y           Z
 ---------------------------------------------------------------------
      1          6           0        0.000000    0.000000    0.000000
      2          6           0        0.000000    0.000000    1.539104
      3          1           0        0.814778    0.000000   -0.725053
      4          1           0       -0.264042   -1.057697   -0.030990
      5          1           0       -0.841293    0.482006   -0.505632
      6          1           0       -1.082851    0.013112    1.718964
      7          1           0        0.232310   -1.025187    1.834248
      8          1           0        0.491587    0.829359    2.047203
 ---------------------------------------------------------------------

 SCF Done:  E(RB3LYP) =  -79.8096689907     A.U. after   10 cycles

 Alpha  occ. eigenvalues --  -10.18507 -10.17510  -0.76302  -0.61915  -0.45054
 Alpha  occ. eigenvalues --   -0.43106  -0.37868  -0.33662  -0.32457
 Alpha virt. eigenvalues --    0.01462   0.02835   0.05204   0.05503   0.07866
 Alpha virt. eigenvalues --    0.08870   0.09090   0.13867   0.14491   0.19046
 Alpha virt. eigenvalues --    0.21772   0.24474   0.25525   0.28765   0.33122

 Mulliken atomic charges:
              1
     1  C   -0.424744
     2  C   -0.460394
     3  H    0.148783
     4  H    0.135137
     5  H    0.147981
     6  H    0.151831
     7  H    0.152070
     8  H    0.149335
 Sum of Mulliken atomic charges =  -0.00000

 Dipole moment (field-independent basis, Debye):
    X=             -0.1928    Y=             -0.2493    Z=              0.0247  Tot=              0.3161
 Quadrupole moment (field-independent basis, Debye-Ang):
   XX=            -15.3584   YY=            -15.1115   ZZ=            -15.5363
   XY=              0.0107   XZ=             -0.2669   YZ=             -0.2059

 Optimization completed.
    -- Stationary point found.
 Normal termination of Gaussian 09 at Wed May 26 19:14:36 2021.
