 Gaussian 09, Revision A.02,
 Gaussian 09:  EM64L-G09RevA.02 11-Jun-2009

 --------------------------------
 #p b3lyp/6-31+g(d,p) force nosym
 --------------------------------

 -------------
 c2h6 molecule
 -------------
 Symbolic Z-matrix:
 Charge =  0 Multiplicity = 1

                          Input orientation:
 ---------------------------------------------------------------------
 Center     Atomic      Atomic             Coordinates (Angstroms)
 Number     Number       Type             X           Y           Z
 ---------------------------------------------------------------------
      1          6           0        0.000000    0.000000    0.000000
      2          6           0        0.000000    0.000000    1.568610
      3          1           0        0.817147    0.000000   -0.739543
      4          1           0       -0.278805   -1.083574   -0.042780
      5          1           0       -0.842078    0.474944   -0.506623
      6          1           0       -1.085760    0.012318    1.756108
      7          1           0        0.237050   -1.021275    1.869644
      8          1           0        0.484695    0.817820    2.085862
 ---------------------------------------------------------------------

 SCF Done:  E(RB3LYP) =  -79.8105625876     A.U. after   10 cycles

 Alpha  occ. eigenvalues --  -10.18737 -10.18142  -0.75532  -0.62101  -0.44653
 Alpha  occ. eigenvalues --   -0.42749  -0.37643  -0.33893  -0.32464
 Alpha virt. eigenvalues --    0.01417   0.02674   0.05271   0.05569   0.07879
 Alpha virt. eigenvalues --    0.08838   0.09048   0.13683   0.14421   0.18479
 Alpha virt. eigenvalues --    0.21653   0.23896   0.25113   0.28522   0.32714

 Mulliken atomic charges:
              1
     1  C   -0.430179
     2  C   -0.458582
     3  H    0.149750
     4  H    0.131543
     5  H    0.150296
     6  H    0.151833
     7  H    0.153923
     8  H    0.151415
 Sum of Mulliken atomic charges =   0.00000

 Dipole moment (field-independent basis, Debye):
    X=             -0.1962    Y=             -0.2284    Z=              0.0552  Tot=              0.3061
 Quadrupole moment (field-independent basis, Debye-Ang):
   XX=            -15.4245   YY=            -15.2208   ZZ=            -15.3405
   XY=              0.0089   XZ=             -0.2582   YZ=             -0.2007

 Optimization completed.
    -- Stationary point found.
 Normal termination of Gaussian 09 at Wed May 26 19:15:43 2021.
