 Gaussian 09, Revision A.02,
 Gaussian 09:  EM64L-G09RevA.02 11-Jun-2009

 --------------------------------
 #p b3lyp/6-31+g(d,p) force nosym
 --------------------------------

 -------------
 c2h6 molecule
 -------------
 Symbolic Z-matrix:
 Charge =  0 Multiplicity = 1

                          Input orientation:
 ---------------------------------------------------------------------
 Center     Atomic      Atomic             Coordinates (Angstroms)
 Number     Number       Type             X           Y           Z
 ---------------------------------------------------------------------
      1          6           0        0.000000    0.000000    0.000000
      2          6           0        0.000000    0.000000    1.942710
      3          1           0        0.024179    0.000000   -1.176655
      4          1           0       -0.468365   -0.815572   -0.339818
      5          1           0       -1.097321    0.021703   -0.374790
      6          1           0       -1.033152    0.000017    2.296076
      7          1           0        0.521731   -0.902852    2.299366
      8          1           0        0.012466    0.021591    3.204868
 ---------------------------------------------------------------------

 SCF Done:  E(RB3LYP) =  -79.4722977917     A.U. after   11 cycles

 Alpha  occ. eigenvalues --  -10.24980 -10.23029  -0.77269  -0.70765  -0.42647
 Alpha  occ. eigenvalues --   -0.42076  -0.35296  -0.29863  -0.26365
 Alpha virt. eigenvalues --   -0.11187  -0.00389   0.02679   0.04583   0.06136
 Alpha virt. eigenvalues --    0.07079   0.08394   0.09049   0.13569   0.15324
 Alpha virt. eigenvalues --    0.17198   0.20820   0.22954   0.24649   0.25710

 Mulliken atomic charges:
              1
     1  C   -0.340946
     2  C   -0.417387
     3  H    0.130669
     4  H    0.107886
     5  H    0.063123
     6  H    0.148524
     7  H    0.148790
     8  H    0.159340
 Sum of Mulliken atomic charges =  -0.00000

 Dipole moment (field-independent basis, Debye):
    X=             -1.2389    Y=             -1.3225    Z=              0.5192  Tot=              1.8851
 Quadrupole moment (field-independent basis, Debye-Ang):
   XX=            -16.6994   YY=            -18.4730   ZZ=            -10.0020
   XY=              0.0331   XZ=             -0.3222   YZ=             -1.3587

 Optimization completed.
    -- Stationary point found.
 Normal termination of Gaussian 09 at Wed May 26 19:09:09 2021.
