 Gaussian 09, Revision A.02,
 Gaussian 09:  EM64L-G09RevA.02 11-Jun-2009

 --------------------------------
 #p b3lyp/6-31+g(d,p) force nosym
 --------------------------------

 -------------
 c2h6 molecule
 -------------
 Symbolic Z-matrix:
 Charge =  0 Multiplicity = 1

                          Input orientation:
 ---------------------------------------------------------------------
 Center     Atomic      Atomic             Coordinates (Angstroms)
 Number     Number       Type             X           Y           Z
 ---------------------------------------------------------------------
      1          6           0        0.000000    0.000000    0.000000
      2          6           0        0.000000    0.000000    1.534809
      3          1           0        0.030183    0.000000   -1.207413
      4          1           0       -0.472040   -0.828369   -0.340810
      5          1           0       -1.085550    0.025118   -0.366297
      6          1           0       -1.028306    0.000042    1.883056
      7          1           0        0.522570   -0.903103    1.888181
      8          1           0        0.015847    0.027446    2.910228
 ---------------------------------------------------------------------

 SCF Done:  E(RB3LYP) =  -79.5229006592     A.U. after   11 cycles

 Alpha  occ. eigenvalues --  -10.23047 -10.21498  -0.79700  -0.68490  -0.47747
 Alpha  occ. eigenvalues --   -0.43588  -0.36454  -0.29278  -0.24028
 Alpha virt. eigenvalues --   -0.06145  -0.00446   0.02134   0.05270   0.06062
 Alpha virt. eigenvalues --    0.06775   0.08650   0.09213   0.13787   0.15476
 Alpha virt. eigenvalues --    0.17268   0.21765   0.23486   0.26349   0.36831

 Mulliken atomic charges:
              1
     1  C   -0.335546
     2  C   -0.454012
     3  H    0.146103
     4  H    0.113663
     5  H    0.068754
     6  H    0.152555
     7  H    0.148447
     8  H    0.160036
 Sum of Mulliken atomic charges =  -0.00000

 Dipole moment (field-independent basis, Debye):
    X=             -1.2611    Y=             -1.3429    Z=              0.1411  Tot=              1.8476
 Quadrupole moment (field-independent basis, Debye-Ang):
   XX=            -16.3918   YY=            -18.1028   ZZ=            -12.7358
   XY=              0.0960   XZ=             -0.3268   YZ=             -1.1891

 Optimization completed.
    -- Stationary point found.
 Normal termination of Gaussian 09 at Wed May 26 19:09:55 2021.
