 Gaussian 09, Revision A.02,
 Gaussian 09:  EM64L-G09RevA.02 11-Jun-2009

 --------------------------------
 #p b3lyp/6-31+g(d,p) force nosym
 --------------------------------

 -------------
 c2h6 molecule
 -------------
 Symbolic Z-matrix:
 Charge =  0 Multiplicity = 1

                          Input orientation:
 ---------------------------------------------------------------------
 Center     Atomic      Atomic             Coordinates (Angstroms)
 Number     Number       Type             X           Y           Z
 ---------------------------------------------------------------------
      1          6           0        0.000000    0.000000    0.000000
      2          6           0        0.000000    0.000000    1.567461
      3          1           0        0.818028    0.000000   -0.727119
      4          1           0       -0.268592   -1.072880   -0.032096
      5          1           0       -0.841093    0.481957   -0.508137
      6          1           0       -1.083297    0.013138    1.748324
      7          1           0        0.231049   -1.024724    1.863727
      8          1           0        0.492080    0.830144    2.073935
 ---------------------------------------------------------------------

 SCF Done:  E(RB3LYP) =  -79.8102438347     A.U. after   10 cycles

 Alpha  occ. eigenvalues --  -10.18744 -10.17912  -0.75659  -0.62051  -0.44771
 Alpha  occ. eigenvalues --   -0.42814  -0.37616  -0.33893  -0.32454
 Alpha virt. eigenvalues --    0.01443   0.02722   0.05247   0.05562   0.07881
 Alpha virt. eigenvalues --    0.08839   0.09053   0.13779   0.14395   0.18666
 Alpha virt. eigenvalues --    0.21642   0.24050   0.24948   0.28588   0.32795

 Mulliken atomic charges:
              1
     1  C   -0.428852
     2  C   -0.459946
     3  H    0.149604
     4  H    0.133148
     5  H    0.149101
     6  H    0.152583
     7  H    0.153609
     8  H    0.150753
 Sum of Mulliken atomic charges =   0.00000

 Dipole moment (field-independent basis, Debye):
    X=             -0.1922    Y=             -0.2377    Z=              0.0447  Tot=              0.3089
 Quadrupole moment (field-independent basis, Debye-Ang):
   XX=            -15.4054   YY=            -15.1601   ZZ=            -15.4372
   XY=              0.0141   XZ=             -0.2704   YZ=             -0.2204

 Optimization completed.
    -- Stationary point found.
 Normal termination of Gaussian 09 at Wed May 26 19:14:56 2021.
