 Gaussian 09, Revision A.02,
 Gaussian 09:  EM64L-G09RevA.02 11-Jun-2009

 --------------------------------
 #p b3lyp/6-31+g(d,p) force nosym
 --------------------------------

 -------------
 c2h6 molecule
 -------------
 Symbolic Z-matrix:
 Charge =  0 Multiplicity = 1

                          Input orientation:
 ---------------------------------------------------------------------
 Center     Atomic      Atomic             Coordinates (Angstroms)
 Number     Number       Type             X           Y           Z
 ---------------------------------------------------------------------
      1          6           0        0.000000    0.000000    0.000000
      2          6           0        0.000000    0.000000    3.514656
      3          1           0        0.020096    0.000000   -1.147365
      4          1           0       -0.584939   -1.013216   -0.425807
      5          1           0       -1.140672    0.019950   -0.392819
      6          1           0       -1.095561    0.000000    3.891895
      7          1           0        0.564642   -0.978010    3.903509
      8          1           0        0.009963    0.017256    4.652087
 ---------------------------------------------------------------------

 SCF Done:  E(RB3LYP) =  -79.3402208717     A.U. after   24 cycles

 Alpha  occ. eigenvalues --  -10.28472 -10.22972  -0.74471  -0.70271  -0.44133
 Alpha  occ. eigenvalues --   -0.34511  -0.33036  -0.28085  -0.26647
 Alpha virt. eigenvalues --   -0.23669  -0.01401   0.01154   0.05191   0.06322
 Alpha virt. eigenvalues --    0.07065   0.08730   0.09336   0.10926   0.12114
 Alpha virt. eigenvalues --    0.12908   0.14544   0.19397   0.20568   0.22737

 Mulliken atomic charges:
              1
     1  C   -0.363709
     2  C   -0.313984
     3  H    0.124839
     4  H    0.029638
     5  H    0.073689
     6  H    0.172739
     7  H    0.169573
     8  H    0.107213
 Sum of Mulliken atomic charges =  -0.00000

 Dipole moment (field-independent basis, Debye):
    X=             -1.0357    Y=             -1.0989    Z=              2.8790  Tot=              3.2510
 Quadrupole moment (field-independent basis, Debye-Ang):
   XX=            -16.6729   YY=            -18.5771   ZZ=              2.7085
   XY=              0.1635   XZ=             -0.4231   YZ=             -2.2792

 Optimization completed.
    -- Stationary point found.
 Normal termination of Gaussian 09 at Wed May 26 19:07:46 2021.
