 Gaussian 09, Revision A.02,
 Gaussian 09:  EM64L-G09RevA.02 11-Jun-2009

 --------------------------------
 #p b3lyp/6-31+g(d,p) force nosym
 --------------------------------

 -------------
 c2h6 molecule
 -------------
 Symbolic Z-matrix:
 Charge =  0 Multiplicity = 1

                          Input orientation:
 ---------------------------------------------------------------------
 Center     Atomic      Atomic             Coordinates (Angstroms)
 Number     Number       Type             X           Y           Z
 ---------------------------------------------------------------------
      1          6           0        0.000000    0.000000    0.000000
      2          6           0        0.000000    0.000000    3.468169
      3          1           0        0.019945    0.000000   -1.132058
      4          1           0       -0.557274   -0.965449   -0.405635
      5          1           0       -1.099079    0.019298   -0.378384
      6          1           0       -1.046986    0.000001    3.828601
      7          1           0        0.523123   -0.906071    3.828343
      8          1           0        0.010270    0.017789    4.635829
 ---------------------------------------------------------------------

 SCF Done:  E(RB3LYP) =  -79.3490181861     A.U. after   22 cycles

 Alpha  occ. eigenvalues --  -10.27761 -10.22295  -0.75518  -0.71979  -0.45510
 Alpha  occ. eigenvalues --   -0.34626  -0.33323  -0.28183  -0.27153
 Alpha virt. eigenvalues --   -0.23519  -0.01141   0.01350   0.05274   0.06301
 Alpha virt. eigenvalues --    0.07597   0.08922   0.09360   0.11098   0.12711
 Alpha virt. eigenvalues --    0.14740   0.16435   0.19947   0.21861   0.22948

 Mulliken atomic charges:
              1
     1  C   -0.367463
     2  C   -0.316473
     3  H    0.118160
     4  H    0.051291
     5  H    0.065839
     6  H    0.175487
     7  H    0.176318
     8  H    0.096841
 Sum of Mulliken atomic charges =   0.00000

 Dipole moment (field-independent basis, Debye):
    X=             -1.1339    Y=             -1.0494    Z=              2.7242  Tot=              3.1318
 Quadrupole moment (field-independent basis, Debye-Ang):
   XX=            -16.6511   YY=            -18.3521   ZZ=              1.5743
   XY=              0.3677   XZ=             -0.4945   YZ=             -2.0750

 Optimization completed.
    -- Stationary point found.
 Normal termination of Gaussian 09 at Wed May 26 19:08:19 2021.
