 Gaussian 09, Revision A.02,
 Gaussian 09:  EM64L-G09RevA.02 11-Jun-2009

 --------------------------------
 #p b3lyp/6-31+g(d,p) force nosym
 --------------------------------

 -------------
 c2h6 molecule
 -------------
 Symbolic Z-matrix:
 Charge =  0 Multiplicity = 1

                          Input orientation:
 ---------------------------------------------------------------------
 Center     Atomic      Atomic             Coordinates (Angstroms)
 Number     Number       Type             X           Y           Z
 ---------------------------------------------------------------------
      1          6           0        0.000000    0.000000    0.000000
      2          6           0        0.000000    0.000000    1.500002
      3          1           0        0.030440    0.000000   -1.102222
      4          1           0       -0.565142   -0.996211   -0.406910
      5          1           0       -1.101104    0.027613   -0.368946
      6          1           0       -1.048809    0.000057    1.853206
      7          1           0        0.526153   -0.908736    1.853659
      8          1           0        0.015775    0.027320    2.759694
 ---------------------------------------------------------------------

 SCF Done:  E(RB3LYP) =  -79.5506982419     A.U. after   11 cycles

 Alpha  occ. eigenvalues --  -10.22181 -10.22093  -0.78418  -0.68280  -0.49263
 Alpha  occ. eigenvalues --   -0.43720  -0.36512  -0.28705  -0.23426
 Alpha virt. eigenvalues --   -0.03968  -0.00569   0.03299   0.05232   0.06022
 Alpha virt. eigenvalues --    0.07029   0.08796   0.09457   0.12306   0.15112
 Alpha virt. eigenvalues --    0.17886   0.20719   0.22706   0.26083   0.39238

 Mulliken atomic charges:
              1
     1  C   -0.336336
     2  C   -0.447493
     3  H    0.169527
     4  H    0.054121
     5  H    0.075701
     6  H    0.144479
     7  H    0.144015
     8  H    0.195986
 Sum of Mulliken atomic charges =   0.00000

 Dipole moment (field-independent basis, Debye):
    X=             -1.1201    Y=             -0.9761    Z=              0.3751  Tot=              1.5324
 Quadrupole moment (field-independent basis, Debye-Ang):
   XX=            -16.3943   YY=            -18.4766   ZZ=            -11.7074
   XY=             -0.1129   XZ=             -0.3088   YZ=             -1.2642

 Optimization completed.
    -- Stationary point found.
 Normal termination of Gaussian 09 at Wed May 26 19:10:37 2021.
