 Gaussian 09, Revision A.02,
 Gaussian 09:  EM64L-G09RevA.02 11-Jun-2009

 --------------------------------
 #p b3lyp/6-31+g(d,p) force nosym
 --------------------------------

 -------------
 c2h6 molecule
 -------------
 Symbolic Z-matrix:
 Charge =  0 Multiplicity = 1

                          Input orientation:
 ---------------------------------------------------------------------
 Center     Atomic      Atomic             Coordinates (Angstroms)
 Number     Number       Type             X           Y           Z
 ---------------------------------------------------------------------
      1          6           0        0.000000    0.000000    0.000000
      2          6           0        0.000000    0.000000    1.433655
      3          1           0        0.655349    0.000000   -0.872955
      4          1           0       -0.244927   -0.999879   -0.041605
      5          1           0       -0.954344    0.428956   -0.288344
      6          1           0       -1.079872    0.008210    1.569680
      7          1           0        0.396272   -1.006286    1.636471
      8          1           0        0.364883    0.621542    2.227557
 ---------------------------------------------------------------------

 SCF Done:  E(RB3LYP) =  -79.7712188812     A.U. after   10 cycles

 Alpha  occ. eigenvalues --  -10.17662 -10.16679  -0.79626  -0.61983  -0.46474
 Alpha  occ. eigenvalues --   -0.45061  -0.38827  -0.32794  -0.30897
 Alpha virt. eigenvalues --    0.01259   0.02844   0.05003   0.05330   0.07457
 Alpha virt. eigenvalues --    0.09089   0.09166   0.14550   0.14981   0.20026
 Alpha virt. eigenvalues --    0.20326   0.23360   0.27369   0.33488   0.34252

 Mulliken atomic charges:
              1
     1  C   -0.438888
     2  C   -0.417996
     3  H    0.148650
     4  H    0.151094
     5  H    0.140762
     6  H    0.140898
     7  H    0.131309
     8  H    0.144171
 Sum of Mulliken atomic charges =  -0.00000

 Dipole moment (field-independent basis, Debye):
    X=             -0.2631    Y=             -0.3788    Z=             -0.0482  Tot=              0.4637
 Quadrupole moment (field-independent basis, Debye-Ang):
   XX=            -15.1822   YY=            -15.4721   ZZ=            -15.3123
   XY=             -0.4397   XZ=             -0.3223   YZ=              0.3466

 Optimization completed.
    -- Stationary point found.
 Normal termination of Gaussian 09 at Wed May 26 19:14:17 2021.
