 Gaussian 09, Revision A.02,
 Gaussian 09:  EM64L-G09RevA.02 11-Jun-2009

 --------------------------------
 #p b3lyp/6-31+g(d,p) force nosym
 --------------------------------

 -------------
 c2h6 molecule
 -------------
 Symbolic Z-matrix:
 Charge =  0 Multiplicity = 1

                          Input orientation:
 ---------------------------------------------------------------------
 Center     Atomic      Atomic             Coordinates (Angstroms)
 Number     Number       Type             X           Y           Z
 ---------------------------------------------------------------------
      1          6           0        0.000000    0.000000    0.000000
      2          6           0        0.000000    0.000000    1.738379
      3          1           0        0.546814    0.000000   -0.947741
      4          1           0       -0.164992   -1.078676    0.033377
      5          1           0       -0.999800    0.412719    0.074867
      6          1           0       -1.087593    0.003240    1.745405
      7          1           0        0.582625   -0.924508    1.749064
      8          1           0        0.224979    0.387001    2.745322
 ---------------------------------------------------------------------

 SCF Done:  E(RB3LYP) =  -79.7201206922     A.U. after   10 cycles

 Alpha  occ. eigenvalues --  -10.19946 -10.19888  -0.75097  -0.63195  -0.47107
 Alpha  occ. eigenvalues --   -0.43185  -0.36844  -0.32882  -0.28964
 Alpha virt. eigenvalues --    0.00096   0.00948   0.04981   0.05844   0.06554
 Alpha virt. eigenvalues --    0.07341   0.08661   0.10210   0.14777   0.15452
 Alpha virt. eigenvalues --    0.19856   0.21380   0.25438   0.29441   0.32673

 Mulliken atomic charges:
              1
     1  C   -0.455317
     2  C   -0.433493
     3  H    0.154365
     4  H    0.146541
     5  H    0.154249
     6  H    0.134259
     7  H    0.145958
     8  H    0.153438
 Sum of Mulliken atomic charges =   0.00000

 Dipole moment (field-independent basis, Debye):
    X=             -0.2683    Y=             -0.5417    Z=             -0.0181  Tot=              0.6048
 Quadrupole moment (field-independent basis, Debye-Ang):
   XX=            -15.4628   YY=            -16.4024   ZZ=            -14.6746
   XY=             -1.0542   XZ=             -0.7371   YZ=              0.1760

 Optimization completed.
    -- Stationary point found.
 Normal termination of Gaussian 09 at Wed May 26 19:12:27 2021.
