 Gaussian 09, Revision A.02,
 Gaussian 09:  EM64L-G09RevA.02 11-Jun-2009

 --------------------------------
 #p b3lyp/6-31+g(d,p) force nosym
 --------------------------------

 -------------
 c2h6 molecule
 -------------
 Symbolic Z-matrix:
 Charge =  0 Multiplicity = 1

                          Input orientation:
 ---------------------------------------------------------------------
 Center     Atomic      Atomic             Coordinates (Angstroms)
 Number     Number       Type             X           Y           Z
 ---------------------------------------------------------------------
      1          6           0        0.000000    0.000000    0.000000
      2          6           0        0.000000    0.000000    1.563467
      3          1           0        0.818057    0.000000   -0.726728
      4          1           0       -0.267309   -1.068971   -0.031666
      5          1           0       -0.840850    0.482076   -0.507651
      6          1           0       -1.083869    0.013149    1.744150
      7          1           0        0.231140   -1.024903    1.859493
      8          1           0        0.492373    0.830637    2.069998
 ---------------------------------------------------------------------

 SCF Done:  E(RB3LYP) =  -79.8102213704     A.U. after   10 cycles

 Alpha  occ. eigenvalues --  -10.18722 -10.17836  -0.75753  -0.62030  -0.44813
 Alpha  occ. eigenvalues --   -0.42850  -0.37646  -0.33856  -0.32468
 Alpha virt. eigenvalues --    0.01448   0.02738   0.05241   0.05553   0.07880
 Alpha virt. eigenvalues --    0.08843   0.09057   0.13804   0.14408   0.18718
 Alpha virt. eigenvalues --    0.21658   0.24127   0.25014   0.28611   0.32849

 Mulliken atomic charges:
              1
     1  C   -0.428281
     2  C   -0.460104
     3  H    0.149374
     4  H    0.133771
     5  H    0.148937
     6  H    0.152379
     7  H    0.153384
     8  H    0.150540
 Sum of Mulliken atomic charges =  -0.00000

 Dipole moment (field-independent basis, Debye):
    X=             -0.1926    Y=             -0.2413    Z=              0.0407  Tot=              0.3114
 Quadrupole moment (field-independent basis, Debye-Ang):
   XX=            -15.3979   YY=            -15.1507   ZZ=            -15.4556
   XY=              0.0140   XZ=             -0.2688   YZ=             -0.2181

 Optimization completed.
    -- Stationary point found.
 Normal termination of Gaussian 09 at Wed May 26 19:14:46 2021.
