 Gaussian 09, Revision A.02,
 Gaussian 09:  EM64L-G09RevA.02 11-Jun-2009

 --------------------------------
 #p b3lyp/6-31+g(d,p) force nosym
 --------------------------------

 -------------
 c2h6 molecule
 -------------
 Symbolic Z-matrix:
 Charge =  0 Multiplicity = 1

                          Input orientation:
 ---------------------------------------------------------------------
 Center     Atomic      Atomic             Coordinates (Angstroms)
 Number     Number       Type             X           Y           Z
 ---------------------------------------------------------------------
      1          6           0        0.000000    0.000000    0.000000
      2          6           0        0.000000    0.000000    1.733538
      3          1           0        0.586545    0.000000   -0.932706
      4          1           0       -0.135698   -1.090873    0.065141
      5          1           0       -1.010114    0.450672    0.110275
      6          1           0       -1.084563    0.003473    1.713943
      7          1           0        0.578205   -0.911478    1.717873
      8          1           0        0.242113    0.416259    2.734466
 ---------------------------------------------------------------------

 SCF Done:  E(RB3LYP) =  -79.7182713495     A.U. after   10 cycles

 Alpha  occ. eigenvalues --  -10.20252 -10.19758  -0.75276  -0.62569  -0.47569
 Alpha  occ. eigenvalues --   -0.43369  -0.36807  -0.32449  -0.28848
 Alpha virt. eigenvalues --    0.00301   0.00936   0.04868   0.05773   0.06691
 Alpha virt. eigenvalues --    0.07339   0.08623   0.10389   0.14202   0.15463
 Alpha virt. eigenvalues --    0.19399   0.21097   0.25239   0.28854   0.32367

 Mulliken atomic charges:
              1
     1  C   -0.446623
     2  C   -0.431585
     3  H    0.153046
     4  H    0.142905
     5  H    0.151998
     6  H    0.133559
     7  H    0.146270
     8  H    0.150431
 Sum of Mulliken atomic charges =   0.00000

 Dipole moment (field-independent basis, Debye):
    X=             -0.1932    Y=             -0.5047    Z=             -0.0014  Tot=              0.5405
 Quadrupole moment (field-independent basis, Debye-Ang):
   XX=            -15.4620   YY=            -16.3422   ZZ=            -14.9708
   XY=             -1.1287   XZ=             -0.7855   YZ=              0.2368

 Optimization completed.
    -- Stationary point found.
 Normal termination of Gaussian 09 at Wed May 26 19:12:09 2021.
