 Gaussian 09, Revision A.02,
 Gaussian 09:  EM64L-G09RevA.02 11-Jun-2009

 --------------------------------
 #p b3lyp/6-31+g(d,p) force nosym
 --------------------------------

 -------------
 c2h6 molecule
 -------------
 Symbolic Z-matrix:
 Charge =  0 Multiplicity = 1

                          Input orientation:
 ---------------------------------------------------------------------
 Center     Atomic      Atomic             Coordinates (Angstroms)
 Number     Number       Type             X           Y           Z
 ---------------------------------------------------------------------
      1          6           0        0.000000    0.000000    0.000000
      2          6           0        0.000000    0.000000    1.475441
      3          1           0        0.029947    0.000000   -1.107067
      4          1           0       -0.558379   -0.983289   -0.402305
      5          1           0       -1.102398    0.027163   -0.369980
      6          1           0       -1.051254    0.000054    1.829944
      7          1           0        0.530117   -0.915792    1.832303
      8          1           0        0.014683    0.025429    2.666655
 ---------------------------------------------------------------------

 SCF Done:  E(RB3LYP) =  -79.5549930723     A.U. after   11 cycles

 Alpha  occ. eigenvalues --  -10.21899 -10.21456  -0.78992  -0.68788  -0.50130
 Alpha  occ. eigenvalues --   -0.43883  -0.36643  -0.28587  -0.23189
 Alpha virt. eigenvalues --   -0.02617  -0.00612   0.03529   0.05161   0.06072
 Alpha virt. eigenvalues --    0.07161   0.08861   0.09518   0.12420   0.15428
 Alpha virt. eigenvalues --    0.18078   0.20941   0.22905   0.26185   0.40486

 Mulliken atomic charges:
              1
     1  C   -0.325859
     2  C   -0.462205
     3  H    0.170333
     4  H    0.056203
     5  H    0.074716
     6  H    0.142171
     7  H    0.139265
     8  H    0.205377
 Sum of Mulliken atomic charges =  -0.00000

 Dipole moment (field-independent basis, Debye):
    X=             -1.1060    Y=             -0.9605    Z=              0.4313  Tot=              1.5270
 Quadrupole moment (field-independent basis, Debye-Ang):
   XX=            -16.3264   YY=            -18.4389   ZZ=            -11.5857
   XY=             -0.1356   XZ=             -0.2593   YZ=             -1.1062

 Optimization completed.
    -- Stationary point found.
 Normal termination of Gaussian 09 at Wed May 26 19:10:47 2021.
