 Gaussian 09, Revision A.02,
 Gaussian 09:  EM64L-G09RevA.02 11-Jun-2009

 --------------------------------
 #p b3lyp/6-31+g(d,p) force nosym
 --------------------------------

 -------------
 c2h6 molecule
 -------------
 Symbolic Z-matrix:
 Charge =  0 Multiplicity = 1

                          Input orientation:
 ---------------------------------------------------------------------
 Center     Atomic      Atomic             Coordinates (Angstroms)
 Number     Number       Type             X           Y           Z
 ---------------------------------------------------------------------
      1          6           0        0.000000    0.000000    0.000000
      2          6           0        0.000000    0.000000    1.734446
      3          1           0        0.543191    0.000000   -0.948936
      4          1           0       -0.168888   -1.085807    0.030779
      5          1           0       -1.002067    0.410692    0.071985
      6          1           0       -1.087541    0.003218    1.743871
      7          1           0        0.582140   -0.924287    1.747516
      8          1           0        0.223648    0.384729    2.742793
 ---------------------------------------------------------------------

 SCF Done:  E(RB3LYP) =  -79.7201452223     A.U. after   10 cycles

 Alpha  occ. eigenvalues --  -10.19957 -10.19937  -0.75098  -0.63167  -0.47094
 Alpha  occ. eigenvalues --   -0.43192  -0.36781  -0.32867  -0.28966
 Alpha virt. eigenvalues --    0.00121   0.00930   0.04982   0.05832   0.06557
 Alpha virt. eigenvalues --    0.07342   0.08666   0.10214   0.14701   0.15453
 Alpha virt. eigenvalues --    0.19887   0.21405   0.25354   0.29454   0.32710

 Mulliken atomic charges:
              1
     1  C   -0.456193
     2  C   -0.432080
     3  H    0.154809
     4  H    0.145390
     5  H    0.154114
     6  H    0.134291
     7  H    0.146090
     8  H    0.153578
 Sum of Mulliken atomic charges =  -0.00000

 Dipole moment (field-independent basis, Debye):
    X=             -0.2690    Y=             -0.5383    Z=             -0.0164  Tot=              0.6020
 Quadrupole moment (field-independent basis, Debye-Ang):
   XX=            -15.4690   YY=            -16.4136   ZZ=            -14.6659
   XY=             -1.0479   XZ=             -0.7365   YZ=              0.1658

 Optimization completed.
    -- Stationary point found.
 Normal termination of Gaussian 09 at Wed May 26 19:12:37 2021.
