 Gaussian 09, Revision A.02,
 Gaussian 09:  EM64L-G09RevA.02 11-Jun-2009

 --------------------------------
 #p b3lyp/6-31+g(d,p) force nosym
 --------------------------------

 -------------
 c2h6 molecule
 -------------
 Symbolic Z-matrix:
 Charge =  0 Multiplicity = 1

                          Input orientation:
 ---------------------------------------------------------------------
 Center     Atomic      Atomic             Coordinates (Angstroms)
 Number     Number       Type             X           Y           Z
 ---------------------------------------------------------------------
      1          6           0        0.000000    0.000000    0.000000
      2          6           0        0.000000    0.000000    1.572506
      3          1           0        0.043616    0.000000   -1.236966
      4          1           0       -0.662484   -1.183650   -0.472887
      5          1           0       -1.051517    0.032465   -0.344890
      6          1           0       -1.026965    0.000098    1.912379
      7          1           0        0.529511   -0.912348    1.921657
      8          1           0        0.024338    0.042146    3.160734
 ---------------------------------------------------------------------

 SCF Done:  E(RB3LYP) =  -79.4979125510     A.U. after   12 cycles

 Alpha  occ. eigenvalues --  -10.25127 -10.25060  -0.76023  -0.64988  -0.46062
 Alpha  occ. eigenvalues --   -0.43595  -0.35372  -0.29265  -0.24244
 Alpha virt. eigenvalues --   -0.10681  -0.01410   0.00512   0.05183   0.05340
 Alpha virt. eigenvalues --    0.06420   0.08308   0.08937   0.09988   0.14268
 Alpha virt. eigenvalues --    0.15971   0.17468   0.22246   0.26626   0.33341

 Mulliken atomic charges:
              1
     1  C   -0.410605
     2  C   -0.365039
     3  H    0.190441
     4  H    0.015320
     5  H    0.112691
     6  H    0.167448
     7  H    0.169804
     8  H    0.119941
 Sum of Mulliken atomic charges =  -0.00000

 Dipole moment (field-independent basis, Debye):
    X=             -1.2498    Y=             -0.7344    Z=             -0.1237  Tot=              1.4548
 Quadrupole moment (field-independent basis, Debye-Ang):
   XX=            -16.7149   YY=            -18.9245   ZZ=            -13.8992
   XY=             -0.1441   XZ=             -0.4218   YZ=             -1.9206

 Optimization completed.
    -- Stationary point found.
 Normal termination of Gaussian 09 at Wed May 26 19:10:06 2021.
