 Gaussian 09, Revision A.02,
 Gaussian 09:  EM64L-G09RevA.02 11-Jun-2009

 --------------------------------
 #p b3lyp/6-31+g(d,p) force nosym
 --------------------------------

 -------------
 c2h6 molecule
 -------------
 Symbolic Z-matrix:
 Charge =  0 Multiplicity = 1

                          Input orientation:
 ---------------------------------------------------------------------
 Center     Atomic      Atomic             Coordinates (Angstroms)
 Number     Number       Type             X           Y           Z
 ---------------------------------------------------------------------
      1          6           0        0.000000    0.000000    0.000000
      2          6           0        0.000000    0.000000    1.479736
      3          1           0        0.562344    0.000000   -0.933207
      4          1           0       -0.225416   -1.021296   -0.028851
      5          1           0       -1.003707    0.400223   -0.119628
      6          1           0       -1.084634    0.005258    1.569191
      7          1           0        0.501291   -0.972995    1.601541
      8          1           0        0.278795    0.477693    2.416325
 ---------------------------------------------------------------------

 SCF Done:  E(RB3LYP) =  -79.7420050939     A.U. after   10 cycles

 Alpha  occ. eigenvalues --  -10.18363 -10.17613  -0.79288  -0.62189  -0.47625
 Alpha  occ. eigenvalues --   -0.44663  -0.38073  -0.32716  -0.29310
 Alpha virt. eigenvalues --    0.00966   0.02413   0.04862   0.05448   0.06922
 Alpha virt. eigenvalues --    0.08989   0.09071   0.14012   0.14609   0.17518
 Alpha virt. eigenvalues --    0.20420   0.21736   0.26704   0.32369   0.35904

 Mulliken atomic charges:
              1
     1  C   -0.452241
     2  C   -0.403532
     3  H    0.151482
     4  H    0.152980
     5  H    0.139989
     6  H    0.133692
     7  H    0.128862
     8  H    0.148768
 Sum of Mulliken atomic charges =  -0.00000

 Dipole moment (field-independent basis, Debye):
    X=             -0.2729    Y=             -0.4623    Z=             -0.0439  Tot=              0.5386
 Quadrupole moment (field-independent basis, Debye-Ang):
   XX=            -15.2638   YY=            -15.9140   ZZ=            -15.0931
   XY=             -0.7097   XZ=             -0.4959   YZ=              0.3778

 Optimization completed.
    -- Stationary point found.
 Normal termination of Gaussian 09 at Wed May 26 19:14:08 2021.
