 Gaussian 09, Revision A.02,
 Gaussian 09:  EM64L-G09RevA.02 11-Jun-2009

 --------------------------------
 #p b3lyp/6-31+g(d,p) force nosym
 --------------------------------

 -------------
 c2h6 molecule
 -------------
 Symbolic Z-matrix:
 Charge =  0 Multiplicity = 1

                          Input orientation:
 ---------------------------------------------------------------------
 Center     Atomic      Atomic             Coordinates (Angstroms)
 Number     Number       Type             X           Y           Z
 ---------------------------------------------------------------------
      1          6           0        0.000000    0.000000    0.000000
      2          6           0        0.000000    0.000000    1.484628
      3          1           0        0.029840    0.000000   -1.103643
      4          1           0       -0.555686   -0.978480   -0.400389
      5          1           0       -1.103512    0.027157   -0.370423
      6          1           0       -1.056236    0.000055    1.840871
      7          1           0        0.533784   -0.922251    1.844061
      8          1           0        0.014024    0.024287    2.620159
 ---------------------------------------------------------------------

 SCF Done:  E(RB3LYP) =  -79.5570230510     A.U. after   11 cycles

 Alpha  occ. eigenvalues --  -10.21888 -10.21200  -0.79015  -0.69401  -0.50348
 Alpha  occ. eigenvalues --   -0.43786  -0.36603  -0.28649  -0.23276
 Alpha virt. eigenvalues --   -0.01938  -0.00635   0.03897   0.05139   0.06048
 Alpha virt. eigenvalues --    0.07135   0.08877   0.09531   0.12450   0.15623
 Alpha virt. eigenvalues --    0.18106   0.20925   0.23285   0.26033   0.40214

 Mulliken atomic charges:
              1
     1  C   -0.315170
     2  C   -0.469348
     3  H    0.170023
     4  H    0.057164
     5  H    0.074129
     6  H    0.140113
     7  H    0.136483
     8  H    0.206607
 Sum of Mulliken atomic charges =  -0.00000

 Dipole moment (field-independent basis, Debye):
    X=             -1.0868    Y=             -0.9347    Z=              0.4505  Tot=              1.5025
 Quadrupole moment (field-independent basis, Debye-Ang):
   XX=            -16.3010   YY=            -18.4361   ZZ=            -11.4481
   XY=             -0.1558   XZ=             -0.2072   YZ=             -0.9908

 Optimization completed.
    -- Stationary point found.
 Normal termination of Gaussian 09 at Wed May 26 19:11:06 2021.
