 Gaussian 09, Revision A.02,
 Gaussian 09:  EM64L-G09RevA.02 11-Jun-2009

 --------------------------------
 #p b3lyp/6-31+g(d,p) force nosym
 --------------------------------

 -------------
 c2h6 molecule
 -------------
 Symbolic Z-matrix:
 Charge =  0 Multiplicity = 1

                          Input orientation:
 ---------------------------------------------------------------------
 Center     Atomic      Atomic             Coordinates (Angstroms)
 Number     Number       Type             X           Y           Z
 ---------------------------------------------------------------------
      1          6           0        0.000000    0.000000    0.000000
      2          6           0        0.000000    0.000000    1.491012
      3          1           0        0.795817    0.000000   -0.746611
      4          1           0       -0.252831   -1.024815   -0.029564
      5          1           0       -0.854758    0.475983   -0.469557
      6          1           0       -1.077654    0.012360    1.661617
      7          1           0        0.256096   -1.023034    1.770416
      8          1           0        0.470026    0.794065    2.036238
 ---------------------------------------------------------------------

 SCF Done:  E(RB3LYP) =  -79.8045312722     A.U. after   10 cycles

 Alpha  occ. eigenvalues --  -10.17840 -10.16764  -0.77622  -0.61863  -0.45611
 Alpha  occ. eigenvalues --   -0.43892  -0.38131  -0.33364  -0.32548
 Alpha virt. eigenvalues --    0.01506   0.02991   0.05194   0.05381   0.07876
 Alpha virt. eigenvalues --    0.08952   0.09146   0.14208   0.14756   0.19627
 Alpha virt. eigenvalues --    0.21973   0.25039   0.26955   0.29343   0.34038

 Mulliken atomic charges:
              1
     1  C   -0.419493
     2  C   -0.458053
     3  H    0.146415
     4  H    0.140383
     5  H    0.146137
     6  H    0.150017
     7  H    0.147120
     8  H    0.147474
 Sum of Mulliken atomic charges =  -0.00000

 Dipole moment (field-independent basis, Debye):
    X=             -0.2083    Y=             -0.2752    Z=              0.0024  Tot=              0.3451
 Quadrupole moment (field-independent basis, Debye-Ang):
   XX=            -15.2424   YY=            -15.0592   ZZ=            -15.5773
   XY=             -0.0701   XZ=             -0.2527   YZ=             -0.0782

 Optimization completed.
    -- Stationary point found.
 Normal termination of Gaussian 09 at Wed May 26 19:14:27 2021.
