 Gaussian 09, Revision A.02,
 Gaussian 09:  EM64L-G09RevA.02 11-Jun-2009

 --------------------------------
 #p b3lyp/6-31+g(d,p) force nosym
 --------------------------------

 -------------
 c2h6 molecule
 -------------
 Symbolic Z-matrix:
 Charge =  0 Multiplicity = 1

                          Input orientation:
 ---------------------------------------------------------------------
 Center     Atomic      Atomic             Coordinates (Angstroms)
 Number     Number       Type             X           Y           Z
 ---------------------------------------------------------------------
      1          6           0        0.000000    0.000000    0.000000
      2          6           0        0.000000    0.000000    3.414878
      3          1           0        0.020087    0.000000   -1.133568
      4          1           0       -0.550825   -0.954446   -0.400895
      5          1           0       -1.099289    0.019387   -0.378352
      6          1           0       -1.046475    0.000001    3.775053
      7          1           0        0.523148   -0.906086    3.774980
      8          1           0        0.010341    0.017911    4.585560
 ---------------------------------------------------------------------

 SCF Done:  E(RB3LYP) =  -79.3506355785     A.U. after   21 cycles

 Alpha  occ. eigenvalues --  -10.27767 -10.22273  -0.75391  -0.72209  -0.45442
 Alpha  occ. eigenvalues --   -0.34610  -0.33361  -0.28232  -0.27247
 Alpha virt. eigenvalues --   -0.23406  -0.01106   0.01358   0.05304   0.06320
 Alpha virt. eigenvalues --    0.07564   0.08909   0.09339   0.11176   0.12837
 Alpha virt. eigenvalues --    0.14876   0.16585   0.19995   0.21981   0.22945

 Mulliken atomic charges:
              1
     1  C   -0.367383
     2  C   -0.316917
     3  H    0.116919
     4  H    0.056497
     5  H    0.063296
     6  H    0.175067
     7  H    0.176004
     8  H    0.096517
 Sum of Mulliken atomic charges =  -0.00000

 Dipole moment (field-independent basis, Debye):
    X=             -1.1473    Y=             -1.0524    Z=              2.6500  Tot=              3.0735
 Quadrupole moment (field-independent basis, Debye-Ang):
   XX=            -16.6691   YY=            -18.3215   ZZ=              1.0029
   XY=              0.3850   XZ=             -0.4949   YZ=             -2.0083

 Optimization completed.
    -- Stationary point found.
 Normal termination of Gaussian 09 at Wed May 26 19:08:46 2021.
