 Gaussian 09, Revision A.02,
 Gaussian 09:  EM64L-G09RevA.02 11-Jun-2009

 --------------------------------
 #p b3lyp/6-31+g(d,p) force nosym
 --------------------------------

 -------------
 c2h6 molecule
 -------------
 Symbolic Z-matrix:
 Charge =  0 Multiplicity = 1

                          Input orientation:
 ---------------------------------------------------------------------
 Center     Atomic      Atomic             Coordinates (Angstroms)
 Number     Number       Type             X           Y           Z
 ---------------------------------------------------------------------
      1          6           0        0.000000    0.000000    0.000000
      2          6           0        0.000000    0.000000    1.730605
      3          1           0        0.544805    0.000000   -0.946311
      4          1           0       -0.166367   -1.081945    0.032611
      5          1           0       -1.001205    0.412448    0.073878
      6          1           0       -1.087554    0.003236    1.738404
      7          1           0        0.582356   -0.924444    1.742092
      8          1           0        0.224807    0.386708    2.738479
 ---------------------------------------------------------------------

 SCF Done:  E(RB3LYP) =  -79.7201892361     A.U. after   10 cycles

 Alpha  occ. eigenvalues --  -10.19915 -10.19875  -0.75196  -0.63137  -0.47167
 Alpha  occ. eigenvalues --   -0.43236  -0.36792  -0.32850  -0.28967
 Alpha virt. eigenvalues --    0.00190   0.00936   0.04975   0.05830   0.06582
 Alpha virt. eigenvalues --    0.07364   0.08670   0.10251   0.14722   0.15477
 Alpha virt. eigenvalues --    0.19847   0.21427   0.25409   0.29478   0.32768

 Mulliken atomic charges:
              1
     1  C   -0.455163
     2  C   -0.432125
     3  H    0.154454
     4  H    0.145893
     5  H    0.153821
     6  H    0.134056
     7  H    0.145673
     8  H    0.153391
 Sum of Mulliken atomic charges =  -0.00000

 Dipole moment (field-independent basis, Debye):
    X=             -0.2641    Y=             -0.5370    Z=             -0.0185  Tot=              0.5988
 Quadrupole moment (field-independent basis, Debye-Ang):
   XX=            -15.4610   YY=            -16.3990   ZZ=            -14.6947
   XY=             -1.0508   XZ=             -0.7363   YZ=              0.1767

 Optimization completed.
    -- Stationary point found.
 Normal termination of Gaussian 09 at Wed May 26 19:12:56 2021.
