 Gaussian 09, Revision A.02,
 Gaussian 09:  EM64L-G09RevA.02 11-Jun-2009

 --------------------------------
 #p b3lyp/6-31+g(d,p) force nosym
 --------------------------------

 -------------
 c2h6 molecule
 -------------
 Symbolic Z-matrix:
 Charge =  0 Multiplicity = 1

                          Input orientation:
 ---------------------------------------------------------------------
 Center     Atomic      Atomic             Coordinates (Angstroms)
 Number     Number       Type             X           Y           Z
 ---------------------------------------------------------------------
      1          6           0        0.000000    0.000000    0.000000
      2          6           0        0.000000    0.000000    1.000000
      3          1           0        0.041344    0.000000   -1.317548
      4          1           0       -0.463085   -0.821800   -0.331959
      5          1           0       -1.072246    0.029986   -0.355491
      6          1           0       -0.993417    0.000074    1.331628
      7          1           0        0.520219   -0.897307    1.346274
      8          1           0        0.022136    0.038333    2.595008
 ---------------------------------------------------------------------

 SCF Done:  E(RB3LYP) =  -79.1077323567     A.U. after   15 cycles

 Alpha  occ. eigenvalues --  -10.21897 -10.20410  -0.94145  -0.67182  -0.55061
 Alpha  occ. eigenvalues --   -0.52970  -0.43937  -0.24993  -0.19062
 Alpha virt. eigenvalues --   -0.06255  -0.02019  -0.00978   0.02448   0.05101
 Alpha virt. eigenvalues --    0.08583   0.09123   0.09640   0.11886   0.14933
 Alpha virt. eigenvalues --    0.15287   0.21851   0.23233   0.31779   0.54860

 Mulliken atomic charges:
              1
     1  C   -0.342045
     2  C   -0.379629
     3  H    0.150690
     4  H    0.152482
     5  H    0.050820
     6  H    0.173779
     7  H    0.122290
     8  H    0.071613
 Sum of Mulliken atomic charges =  -0.00000

 Dipole moment (field-independent basis, Debye):
    X=             -1.4609    Y=             -1.5938    Z=             -1.3927  Tot=              2.5718
 Quadrupole moment (field-independent basis, Debye-Ang):
   XX=            -15.7308   YY=            -16.6450   ZZ=            -20.8766
   XY=              0.6136   XZ=             -0.6016   YZ=             -1.1077

 Optimization completed.
    -- Stationary point found.
 Normal termination of Gaussian 09 at Wed May 26 19:09:24 2021.
