 Gaussian 09, Revision A.02,
 Gaussian 09:  EM64L-G09RevA.02 11-Jun-2009

 --------------------------------
 #p b3lyp/6-31+g(d,p) force nosym
 --------------------------------

 -------------
 c2h6 molecule
 -------------
 Symbolic Z-matrix:
 Charge =  0 Multiplicity = 1

                          Input orientation:
 ---------------------------------------------------------------------
 Center     Atomic      Atomic             Coordinates (Angstroms)
 Number     Number       Type             X           Y           Z
 ---------------------------------------------------------------------
      1          6           0        0.000000    0.000000    0.000000
      2          6           0        0.000000    0.000000    1.724587
      3          1           0        0.544353    0.000000   -0.945346
      4          1           0       -0.166080   -1.079288    0.032429
      5          1           0       -1.001213    0.412457    0.073494
      6          1           0       -1.087678    0.003241    1.732535
      7          1           0        0.582256   -0.924660    1.736284
      8          1           0        0.225055    0.387130    2.732802
 ---------------------------------------------------------------------

 SCF Done:  E(RB3LYP) =  -79.7202439540     A.U. after   10 cycles

 Alpha  occ. eigenvalues --  -10.19890 -10.19805  -0.75308  -0.63106  -0.47224
 Alpha  occ. eigenvalues --   -0.43278  -0.36780  -0.32840  -0.28974
 Alpha virt. eigenvalues --    0.00266   0.00938   0.04970   0.05823   0.06606
 Alpha virt. eigenvalues --    0.07394   0.08677   0.10289   0.14730   0.15506
 Alpha virt. eigenvalues --    0.19831   0.21451   0.25454   0.29526   0.32859

 Mulliken atomic charges:
              1
     1  C   -0.454715
     2  C   -0.431679
     3  H    0.154252
     4  H    0.146263
     5  H    0.153442
     6  H    0.133831
     7  H    0.145277
     8  H    0.153329
 Sum of Mulliken atomic charges =  -0.00000

 Dipole moment (field-independent basis, Debye):
    X=             -0.2617    Y=             -0.5367    Z=             -0.0199  Tot=              0.5975
 Quadrupole moment (field-independent basis, Debye-Ang):
   XX=            -15.4549   YY=            -16.3895   ZZ=            -14.7125
   XY=             -1.0486   XZ=             -0.7342   YZ=              0.1829

 Optimization completed.
    -- Stationary point found.
 Normal termination of Gaussian 09 at Wed May 26 19:13:06 2021.
