 Gaussian 09, Revision A.02,
 Gaussian 09:  EM64L-G09RevA.02 11-Jun-2009

 --------------------------------
 #p b3lyp/6-31+g(d,p) force nosym
 --------------------------------

 -------------
 c2h6 molecule
 -------------
 Symbolic Z-matrix:
 Charge =  0 Multiplicity = 1

                          Input orientation:
 ---------------------------------------------------------------------
 Center     Atomic      Atomic             Coordinates (Angstroms)
 Number     Number       Type             X           Y           Z
 ---------------------------------------------------------------------
      1          6           0        0.000000    0.000000    0.000000
      2          6           0        0.000000    0.000000    1.541027
      3          1           0        1.021589    0.000000   -0.390480
      4          1           0       -0.319305   -1.019774   -0.282046
      5          1           0       -0.784840    0.615818   -0.438648
      6          1           0       -1.053919    0.020384    1.846439
      7          1           0        0.383515   -0.918604    2.000371
      8          1           0        0.562364    0.823465    1.989970
 ---------------------------------------------------------------------

 SCF Done:  E(RB3LYP) =  -79.8318580993     A.U. after    9 cycles

 Alpha  occ. eigenvalues --  -10.17951 -10.17798  -0.75321  -0.61769  -0.44672
 Alpha  occ. eigenvalues --   -0.42620  -0.37121  -0.34708  -0.33113
 Alpha virt. eigenvalues --    0.01686   0.03009   0.05164   0.05545   0.08003
 Alpha virt. eigenvalues --    0.08815   0.09100   0.14247   0.15035   0.20004
 Alpha virt. eigenvalues --    0.20653   0.23889   0.25186   0.29325   0.32867

 Mulliken atomic charges:
              1
     1  C   -0.448038
     2  C   -0.429880
     3  H    0.149189
     4  H    0.142874
     5  H    0.153203
     6  H    0.141599
     7  H    0.144897
     8  H    0.146156
 Sum of Mulliken atomic charges =   0.00000

 Dipole moment (field-independent basis, Debye):
    X=             -0.0582    Y=             -0.1562    Z=             -0.0062  Tot=              0.1668
 Quadrupole moment (field-independent basis, Debye-Ang):
   XX=            -14.7508   YY=            -15.4189   ZZ=            -15.8453
   XY=             -0.1460   XZ=              0.1839   YZ=             -0.1447

 Optimization completed.
    -- Stationary point found.
 Normal termination of Gaussian 09 at Wed May 26 19:17:16 2021.
