 Gaussian 09, Revision A.02,
 Gaussian 09:  EM64L-G09RevA.02 11-Jun-2009

 --------------------------------
 #p b3lyp/6-31+g(d,p) force nosym
 --------------------------------

 -------------
 c2h6 molecule
 -------------
 Symbolic Z-matrix:
 Charge =  0 Multiplicity = 1

                          Input orientation:
 ---------------------------------------------------------------------
 Center     Atomic      Atomic             Coordinates (Angstroms)
 Number     Number       Type             X           Y           Z
 ---------------------------------------------------------------------
      1          6           0        0.000000    0.000000    0.000000
      2          6           0        0.000000    0.000000    3.552953
      3          1           0        1.030675    0.000000   -0.354893
      4          1           0       -0.512518   -0.887706   -0.373081
      5          1           0       -0.515778    0.893355   -0.355195
      6          1           0       -1.030336    0.000000    3.907729
      7          1           0        0.515481   -0.892838    3.907943
      8          1           0        0.515644    0.893122    3.908056
 ---------------------------------------------------------------------

 SCF Done:  E(RB3LYP) =  -79.6378137449     A.U. after   11 cycles

 Alpha  occ. eigenvalues --  -10.22533 -10.22440  -0.68557  -0.68286  -0.41086
 Alpha  occ. eigenvalues --   -0.41057  -0.40900  -0.40808  -0.21792
 Alpha virt. eigenvalues --   -0.14558   0.01384   0.03145   0.05551   0.05557
 Alpha virt. eigenvalues --    0.07987   0.07994   0.10897   0.12462   0.17825
 Alpha virt. eigenvalues --    0.17900   0.19842   0.19868   0.24822   0.31258

 Mulliken atomic charges:
              1
     1  C   -0.478064
     2  C   -0.475074
     3  H    0.158781
     4  H    0.158185
     5  H    0.158668
     6  H    0.159258
     7  H    0.159177
     8  H    0.159068
 Sum of Mulliken atomic charges =   0.00000

 Dipole moment (field-independent basis, Debye):
    X=              0.0047    Y=              0.0079    Z=              0.0273  Tot=              0.0288
 Quadrupole moment (field-independent basis, Debye-Ang):
   XX=            -15.5837   YY=            -15.5949   ZZ=            -10.7379
   XY=             -0.0107   XZ=              0.0098   YZ=              0.0184

 Optimization completed.
    -- Stationary point found.
 Normal termination of Gaussian 09 at Thu May 27 13:50:49 2021.
