 Gaussian 09, Revision A.02,
 Gaussian 09:  EM64L-G09RevA.02 11-Jun-2009

 --------------------------------
 #p b3lyp/6-31+g(d,p) force nosym
 --------------------------------

 -------------
 c2h6 molecule
 -------------
 Symbolic Z-matrix:
 Charge =  0 Multiplicity = 1

                          Input orientation:
 ---------------------------------------------------------------------
 Center     Atomic      Atomic             Coordinates (Angstroms)
 Number     Number       Type             X           Y           Z
 ---------------------------------------------------------------------
      1          6           0        0.000000    0.000000    0.000000
      2          6           0        0.000000    0.000000    1.000000
      3          1           0        1.262004    0.000000   -0.432854
      4          1           0       -0.659897   -1.142974   -0.478535
      5          1           0       -0.681633    1.180681   -0.467601
      6          1           0       -1.265152    0.000000    1.433968
      7          1           0        0.673741   -1.166953    1.462203
      8          1           0        0.681620    1.180599    1.467606
 ---------------------------------------------------------------------

 SCF Done:  E(RB3LYP) =  -79.2670059982     A.U. after   11 cycles

 Alpha  occ. eigenvalues --  -10.24088 -10.22727  -0.88932  -0.50739  -0.48955
 Alpha  occ. eigenvalues --   -0.48582  -0.42194  -0.26250  -0.25626
 Alpha virt. eigenvalues --   -0.04016  -0.02752  -0.01899   0.02266   0.06242
 Alpha virt. eigenvalues --    0.08754   0.08778   0.09580   0.11140   0.12075
 Alpha virt. eigenvalues --    0.15834   0.16307   0.20744   0.20908   0.44148

 Mulliken atomic charges:
              1
     1  C   -0.245979
     2  C   -0.253401
     3  H    0.097933
     4  H    0.082829
     5  H    0.072244
     6  H    0.096713
     7  H    0.076414
     8  H    0.073248
 Sum of Mulliken atomic charges =  -0.00000

 Dipole moment (field-independent basis, Debye):
    X=             -0.0110    Y=             -0.0921    Z=             -0.0363  Tot=              0.0996
 Quadrupole moment (field-independent basis, Debye-Ang):
   XX=            -15.5256   YY=            -15.8176   ZZ=            -19.2453
   XY=              0.0193   XZ=             -0.3112   YZ=              0.0234

 Optimization completed.
    -- Stationary point found.
 Normal termination of Gaussian 09 at Thu May 27 13:52:06 2021.
