 Gaussian 09, Revision A.02,
 Gaussian 09:  EM64L-G09RevA.02 11-Jun-2009

 --------------------------------
 #p b3lyp/6-31+g(d,p) force nosym
 --------------------------------

 -------------
 c2h6 molecule
 -------------
 Symbolic Z-matrix:
 Charge =  0 Multiplicity = 1

                          Input orientation:
 ---------------------------------------------------------------------
 Center     Atomic      Atomic             Coordinates (Angstroms)
 Number     Number       Type             X           Y           Z
 ---------------------------------------------------------------------
      1          6           0        0.000000    0.000000    0.000000
      2          6           0        0.000000    0.000000    1.531496
      3          1           0        1.015355    0.000000   -0.429381
      4          1           0       -0.507791   -0.879475   -0.425696
      5          1           0       -0.498714    0.875218   -0.426007
      6          1           0       -1.010402    0.000000    1.962572
      7          1           0        0.507280   -0.878631    1.964459
      8          1           0        0.503652    0.872355    1.956801
 ---------------------------------------------------------------------

 SCF Done:  E(RB3LYP) =  -79.8408697023     A.U. after    9 cycles

 Alpha  occ. eigenvalues --  -10.18021 -10.17980  -0.75146  -0.62056  -0.43123
 Alpha  occ. eigenvalues --   -0.43011  -0.37661  -0.34305  -0.34205
 Alpha virt. eigenvalues --    0.01726   0.02871   0.05439   0.05453   0.08105
 Alpha virt. eigenvalues --    0.08945   0.08956   0.14262   0.19055   0.19207
 Alpha virt. eigenvalues --    0.19965   0.20035   0.25687   0.29896   0.32521

 Mulliken atomic charges:
              1
     1  C   -0.434810
     2  C   -0.434671
     3  H    0.144374
     4  H    0.144647
     5  H    0.145764
     6  H    0.144892
     7  H    0.144222
     8  H    0.145582
 Sum of Mulliken atomic charges =   0.00000

 Dipole moment (field-independent basis, Debye):
    X=             -0.0018    Y=              0.0126    Z=              0.0017  Tot=              0.0128
 Quadrupole moment (field-independent basis, Debye-Ang):
   XX=            -15.2102   YY=            -15.1903   ZZ=            -15.4261
   XY=              0.0083   XZ=             -0.0054   YZ=              0.0009

 Optimization completed.
    -- Stationary point found.
 Normal termination of Gaussian 09 at Thu May 27 13:46:48 2021.
