 Gaussian 09, Revision A.02,
 Gaussian 09:  EM64L-G09RevA.02 11-Jun-2009

 --------------------------------
 #p b3lyp/6-31+g(d,p) force nosym
 --------------------------------

 -------------
 c2h6 molecule
 -------------
 Symbolic Z-matrix:
 Charge =  0 Multiplicity = 1

                          Input orientation:
 ---------------------------------------------------------------------
 Center     Atomic      Atomic             Coordinates (Angstroms)
 Number     Number       Type             X           Y           Z
 ---------------------------------------------------------------------
      1          6           0        0.000000    0.000000    0.000000
      2          6           0        0.000000    0.000000    1.546994
      3          1           0        1.034535    0.000000   -0.356552
      4          1           0       -0.514143   -0.890520   -0.374598
      5          1           0       -0.517396    0.896149   -0.356637
      6          1           0       -1.034402    0.000000    1.903495
      7          1           0        0.517322   -0.896027    1.903577
      8          1           0        0.517179    0.895780    1.903478
 ---------------------------------------------------------------------

 SCF Done:  E(RB3LYP) =  -79.8404584282     A.U. after    9 cycles

 Alpha  occ. eigenvalues --  -10.17752 -10.17726  -0.75249  -0.61305  -0.43878
 Alpha  occ. eigenvalues --   -0.43809  -0.35622  -0.34770  -0.34735
 Alpha virt. eigenvalues --    0.01742   0.03170   0.05277   0.05292   0.07953
 Alpha virt. eigenvalues --    0.08964   0.08970   0.14225   0.18961   0.19035
 Alpha virt. eigenvalues --    0.20440   0.20566   0.24520   0.29410   0.32782

 Mulliken atomic charges:
              1
     1  C   -0.434982
     2  C   -0.435549
     3  H    0.144930
     4  H    0.145050
     5  H    0.144892
     6  H    0.145152
     7  H    0.145115
     8  H    0.145392
 Sum of Mulliken atomic charges =   0.00000

 Dipole moment (field-independent basis, Debye):
    X=              0.0001    Y=              0.0002    Z=             -0.0018  Tot=              0.0018
 Quadrupole moment (field-independent basis, Debye-Ang):
   XX=            -14.9423   YY=            -14.9506   ZZ=            -16.1990
   XY=             -0.0072   XZ=              0.0132   YZ=              0.0236

 Optimization completed.
    -- Stationary point found.
 Normal termination of Gaussian 09 at Thu May 27 13:53:44 2021.
