 Gaussian 09, Revision A.02,
 Gaussian 09:  EM64L-G09RevA.02 11-Jun-2009

 --------------------------------
 #p b3lyp/6-31+g(d,p) force nosym
 --------------------------------

 -------------
 c2h6 molecule
 -------------
 Symbolic Z-matrix:
 Charge =  0 Multiplicity = 1

                          Input orientation:
 ---------------------------------------------------------------------
 Center     Atomic      Atomic             Coordinates (Angstroms)
 Number     Number       Type             X           Y           Z
 ---------------------------------------------------------------------
      1          6           0        0.000000    0.000000    0.000000
      2          6           0        0.000000    0.000000    1.546476
      3          1           0        1.034113    0.000000   -0.356445
      4          1           0       -0.514093   -0.890433   -0.374588
      5          1           0       -0.517376    0.896120   -0.356663
      6          1           0       -1.034353    0.000000    1.903001
      7          1           0        0.517220   -0.895850    1.903029
      8          1           0        0.517157    0.895742    1.902983
 ---------------------------------------------------------------------

 SCF Done:  E(RB3LYP) =  -79.8404600320     A.U. after    9 cycles

 Alpha  occ. eigenvalues --  -10.17745 -10.17717  -0.75261  -0.61305  -0.43885
 Alpha  occ. eigenvalues --   -0.43815  -0.35630  -0.34768  -0.34732
 Alpha virt. eigenvalues --    0.01743   0.03172   0.05277   0.05291   0.07953
 Alpha virt. eigenvalues --    0.08965   0.08971   0.14228   0.18965   0.19037
 Alpha virt. eigenvalues --    0.20445   0.20574   0.24540   0.29414   0.32793

 Mulliken atomic charges:
              1
     1  C   -0.434964
     2  C   -0.435521
     3  H    0.144966
     4  H    0.145033
     5  H    0.144866
     6  H    0.145134
     7  H    0.145117
     8  H    0.145369
 Sum of Mulliken atomic charges =  -0.00000

 Dipole moment (field-independent basis, Debye):
    X=              0.0004    Y=              0.0000    Z=             -0.0019  Tot=              0.0020
 Quadrupole moment (field-independent basis, Debye-Ang):
   XX=            -14.9414   YY=            -14.9497   ZZ=            -16.1990
   XY=             -0.0072   XZ=              0.0132   YZ=              0.0234

 Optimization completed.
    -- Stationary point found.
 Normal termination of Gaussian 09 at Thu May 27 13:54:13 2021.
