 Gaussian 09, Revision A.02,
 Gaussian 09:  EM64L-G09RevA.02 11-Jun-2009

 --------------------------------
 #p b3lyp/6-31+g(d,p) force nosym
 --------------------------------

 -------------
 c2h6 molecule
 -------------
 Symbolic Z-matrix:
 Charge =  0 Multiplicity = 1

                          Input orientation:
 ---------------------------------------------------------------------
 Center     Atomic      Atomic             Coordinates (Angstroms)
 Number     Number       Type             X           Y           Z
 ---------------------------------------------------------------------
      1          6           0        0.000000    0.000000    0.000000
      2          6           0        0.000000    0.000000    1.818516
      3          1           0        1.141932    0.000000   -0.392495
      4          1           0       -0.583120   -1.009992   -0.423729
      5          1           0       -0.594434    1.029614   -0.408633
      6          1           0       -1.143964    0.000000    2.211724
      7          1           0        0.590970   -1.023589    2.224774
      8          1           0        0.594387    1.029508    2.227123
 ---------------------------------------------------------------------

 SCF Done:  E(RB3LYP) =  -79.7551806750     A.U. after    9 cycles

 Alpha  occ. eigenvalues --  -10.23960 -10.23834  -0.68807  -0.59493  -0.40097
 Alpha  occ. eigenvalues --   -0.39542  -0.34795  -0.34229  -0.32302
 Alpha virt. eigenvalues --    0.00697   0.01034   0.05293   0.05355   0.07609
 Alpha virt. eigenvalues --    0.08321   0.08338   0.11234   0.14144   0.14249
 Alpha virt. eigenvalues --    0.15097   0.15264   0.15842   0.24692   0.26023

 Mulliken atomic charges:
              1
     1  C   -0.413898
     2  C   -0.411297
     3  H    0.142983
     4  H    0.136336
     5  H    0.133395
     6  H    0.143116
     7  H    0.135156
     8  H    0.134208
 Sum of Mulliken atomic charges =  -0.00000

 Dipole moment (field-independent basis, Debye):
    X=             -0.0013    Y=             -0.0174    Z=             -0.0021  Tot=              0.0176
 Quadrupole moment (field-independent basis, Debye-Ang):
   XX=            -15.6578   YY=            -15.6674   ZZ=            -16.5414
   XY=             -0.0081   XZ=             -0.0738   YZ=              0.0186

 Optimization completed.
    -- Stationary point found.
 Normal termination of Gaussian 09 at Thu May 27 13:52:52 2021.
