 Gaussian 09, Revision A.02,
 Gaussian 09:  EM64L-G09RevA.02 11-Jun-2009

 --------------------------------
 #p b3lyp/6-31+g(d,p) force nosym
 --------------------------------

 -------------
 c2h6 molecule
 -------------
 Symbolic Z-matrix:
 Charge =  0 Multiplicity = 1

                          Input orientation:
 ---------------------------------------------------------------------
 Center     Atomic      Atomic             Coordinates (Angstroms)
 Number     Number       Type             X           Y           Z
 ---------------------------------------------------------------------
      1          6           0        0.000000    0.000000    0.000000
      2          6           0        0.000000    0.000000    1.525323
      3          1           0        1.022585    0.000000   -0.371751
      4          1           0       -0.508249   -0.880303   -0.383857
      5          1           0       -0.514138    0.893379   -0.374726
      6          1           0       -1.027553    0.000000    1.899786
      7          1           0        0.509576   -0.882610    1.896751
      8          1           0        0.515884    0.893537    1.900245
 ---------------------------------------------------------------------

 SCF Done:  E(RB3LYP) =  -79.8409830791     A.U. after    9 cycles

 Alpha  occ. eigenvalues --  -10.17559 -10.17494  -0.75621  -0.61464  -0.43918
 Alpha  occ. eigenvalues --   -0.43862  -0.36352  -0.34564  -0.34536
 Alpha virt. eigenvalues --    0.01764   0.03170   0.05293   0.05299   0.07989
 Alpha virt. eigenvalues --    0.08988   0.08991   0.14309   0.19286   0.19321
 Alpha virt. eigenvalues --    0.20327   0.20426   0.25537   0.29664   0.33026

 Mulliken atomic charges:
              1
     1  C   -0.433849
     2  C   -0.434021
     3  H    0.144976
     4  H    0.145267
     5  H    0.143748
     6  H    0.144364
     7  H    0.145625
     8  H    0.143889
 Sum of Mulliken atomic charges =  -0.00000

 Dipole moment (field-independent basis, Debye):
    X=              0.0049    Y=             -0.0143    Z=             -0.0037  Tot=              0.0156
 Quadrupole moment (field-independent basis, Debye-Ang):
   XX=            -14.9717   YY=            -14.9733   ZZ=            -16.0261
   XY=             -0.0036   XZ=              0.0105   YZ=              0.0015

 Optimization completed.
    -- Stationary point found.
 Normal termination of Gaussian 09 at Thu May 27 13:55:11 2021.
