 Gaussian 09, Revision A.02,
 Gaussian 09:  EM64L-G09RevA.02 11-Jun-2009

 --------------------------------
 #p b3lyp/6-31+g(d,p) force nosym
 --------------------------------

 -------------
 c2h6 molecule
 -------------
 Symbolic Z-matrix:
 Charge =  0 Multiplicity = 1

                          Input orientation:
 ---------------------------------------------------------------------
 Center     Atomic      Atomic             Coordinates (Angstroms)
 Number     Number       Type             X           Y           Z
 ---------------------------------------------------------------------
      1          6           0        0.000000    0.000000    0.000000
      2          6           0        0.000000    0.000000    1.530774
      3          1           0        1.020279    0.000000   -0.398429
      4          1           0       -0.508817   -0.881271   -0.403556
      5          1           0       -0.507456    0.885792   -0.398663
      6          1           0       -1.019584    0.000000    1.931143
      7          1           0        0.509280   -0.882097    1.930806
      8          1           0        0.510410    0.884059    1.929017
 ---------------------------------------------------------------------

 SCF Done:  E(RB3LYP) =  -79.8416365717     A.U. after    8 cycles

 Alpha  occ. eigenvalues --  -10.17787 -10.17766  -0.75328  -0.61735  -0.43484
 Alpha  occ. eigenvalues --   -0.43463  -0.36910  -0.34451  -0.34423
 Alpha virt. eigenvalues --    0.01750   0.03028   0.05368   0.05372   0.08044
 Alpha virt. eigenvalues --    0.08966   0.08969   0.14275   0.19589   0.19634
 Alpha virt. eigenvalues --    0.19770   0.19789   0.25567   0.29784   0.32709

 Mulliken atomic charges:
              1
     1  C   -0.434278
     2  C   -0.434348
     3  H    0.144720
     4  H    0.144868
     5  H    0.144662
     6  H    0.144754
     7  H    0.144902
     8  H    0.144720
 Sum of Mulliken atomic charges =  -0.00000

 Dipole moment (field-independent basis, Debye):
    X=              0.0014    Y=             -0.0009    Z=              0.0001  Tot=              0.0017
 Quadrupole moment (field-independent basis, Debye-Ang):
   XX=            -15.0821   YY=            -15.0742   ZZ=            -15.7477
   XY=              0.0014   XZ=              0.0016   YZ=              0.0017

 Optimization completed.
    -- Stationary point found.
 Normal termination of Gaussian 09 at Thu May 27 13:46:34 2021.
