 Gaussian 09, Revision A.02,
 Gaussian 09:  EM64L-G09RevA.02 11-Jun-2009

 --------------------------------
 #p b3lyp/6-31+g(d,p) force nosym
 --------------------------------

 -------------
 c2h6 molecule
 -------------
 Symbolic Z-matrix:
 Charge =  0 Multiplicity = 1

                          Input orientation:
 ---------------------------------------------------------------------
 Center     Atomic      Atomic             Coordinates (Angstroms)
 Number     Number       Type             X           Y           Z
 ---------------------------------------------------------------------
      1          6           0        0.000000    0.000000    0.000000
      2          6           0        0.000000    0.000000    1.547535
      3          1           0        1.035215    0.000000   -0.356783
      4          1           0       -0.514056   -0.890370   -0.374532
      5          1           0       -0.517153    0.895729   -0.356466
      6          1           0       -1.034903    0.000000    1.904205
      7          1           0        0.517063   -0.895578    1.903936
      8          1           0        0.516931    0.895351    1.903845
 ---------------------------------------------------------------------

 SCF Done:  E(RB3LYP) =  -79.8404574834     A.U. after    9 cycles

 Alpha  occ. eigenvalues --  -10.17751 -10.17729  -0.75240  -0.61312  -0.43871
 Alpha  occ. eigenvalues --   -0.43807  -0.35615  -0.34774  -0.34742
 Alpha virt. eigenvalues --    0.01742   0.03168   0.05279   0.05293   0.07954
 Alpha virt. eigenvalues --    0.08964   0.08969   0.14225   0.18960   0.19041
 Alpha virt. eigenvalues --    0.20447   0.20565   0.24501   0.29413   0.32780

 Mulliken atomic charges:
              1
     1  C   -0.435036
     2  C   -0.435626
     3  H    0.144820
     4  H    0.145095
     5  H    0.144990
     6  H    0.145064
     7  H    0.145213
     8  H    0.145480
 Sum of Mulliken atomic charges =  -0.00000

 Dipole moment (field-independent basis, Debye):
    X=              0.0001    Y=              0.0004    Z=             -0.0015  Tot=              0.0015
 Quadrupole moment (field-independent basis, Debye-Ang):
   XX=            -14.9421   YY=            -14.9507   ZZ=            -16.1967
   XY=             -0.0072   XZ=              0.0149   YZ=              0.0235

 Optimization completed.
    -- Stationary point found.
 Normal termination of Gaussian 09 at Thu May 27 13:53:51 2021.
