 Gaussian 09, Revision A.02,
 Gaussian 09:  EM64L-G09RevA.02 11-Jun-2009

 --------------------------------
 #p b3lyp/6-31+g(d,p) force nosym
 --------------------------------

 -------------
 c2h6 molecule
 -------------
 Symbolic Z-matrix:
 Charge =  0 Multiplicity = 1

                          Input orientation:
 ---------------------------------------------------------------------
 Center     Atomic      Atomic             Coordinates (Angstroms)
 Number     Number       Type             X           Y           Z
 ---------------------------------------------------------------------
      1          6           0        0.000000    0.000000    0.000000
      2          6           0        0.000000    0.000000    1.544317
      3          1           0        1.031343    0.000000   -0.356011
      4          1           0       -0.513627   -0.889628   -0.374617
      5          1           0       -0.517179    0.895856   -0.357072
      6          1           0       -1.034183    0.000000    1.901329
      7          1           0        0.517193   -0.895804    1.901399
      8          1           0        0.517101    0.895644    1.901302
 ---------------------------------------------------------------------

 SCF Done:  E(RB3LYP) =  -79.8404761973     A.U. after    9 cycles

 Alpha  occ. eigenvalues --  -10.17727 -10.17665  -0.75309  -0.61312  -0.43913
 Alpha  occ. eigenvalues --   -0.43836  -0.35669  -0.34762  -0.34718
 Alpha virt. eigenvalues --    0.01746   0.03178   0.05275   0.05289   0.07954
 Alpha virt. eigenvalues --    0.08968   0.08974   0.14239   0.18984   0.19055
 Alpha virt. eigenvalues --    0.20460   0.20601   0.24626   0.29434   0.32837

 Mulliken atomic charges:
              1
     1  C   -0.434956
     2  C   -0.435347
     3  H    0.145243
     4  H    0.145014
     5  H    0.144740
     6  H    0.145059
     7  H    0.144987
     8  H    0.145259
 Sum of Mulliken atomic charges =  -0.00000

 Dipole moment (field-independent basis, Debye):
    X=              0.0020    Y=             -0.0003    Z=             -0.0039  Tot=              0.0044
 Quadrupole moment (field-independent basis, Debye-Ang):
   XX=            -14.9388   YY=            -14.9466   ZZ=            -16.1970
   XY=             -0.0072   XZ=              0.0125   YZ=              0.0233

 Optimization completed.
    -- Stationary point found.
 Normal termination of Gaussian 09 at Thu May 27 13:54:35 2021.
