 Gaussian 09, Revision A.02,
 Gaussian 09:  EM64L-G09RevA.02 11-Jun-2009

 --------------------------------
 #p b3lyp/6-31+g(d,p) force nosym
 --------------------------------

 -------------
 c2h6 molecule
 -------------
 Symbolic Z-matrix:
 Charge =  0 Multiplicity = 1

                          Input orientation:
 ---------------------------------------------------------------------
 Center     Atomic      Atomic             Coordinates (Angstroms)
 Number     Number       Type             X           Y           Z
 ---------------------------------------------------------------------
      1          6           0        0.000000    0.000000    0.000000
      2          6           0        0.000000    0.000000    2.065120
      3          1           0        1.105767    0.000000   -0.380306
      4          1           0       -0.559995   -0.969940   -0.407178
      5          1           0       -0.568170    0.984114   -0.390823
      6          1           0       -1.107463    0.000000    2.446019
      7          1           0        0.566039   -0.980408    2.454482
      8          1           0        0.568113    0.984000    2.455908
 ---------------------------------------------------------------------

 SCF Done:  E(RB3LYP) =  -79.7493267931     A.U. after    9 cycles

 Alpha  occ. eigenvalues --  -10.23480 -10.23364  -0.67490  -0.62084  -0.39779
 Alpha  occ. eigenvalues --   -0.39393  -0.36538  -0.36143  -0.29395
 Alpha virt. eigenvalues --   -0.01270   0.01178   0.05819   0.05837   0.07807
 Alpha virt. eigenvalues --    0.08216   0.08228   0.08308   0.12239   0.15731
 Alpha virt. eigenvalues --    0.16420   0.16697   0.17175   0.25927   0.27634

 Mulliken atomic charges:
              1
     1  C   -0.437991
     2  C   -0.435248
     3  H    0.148821
     4  H    0.144408
     5  H    0.142997
     6  H    0.149086
     7  H    0.144298
     8  H    0.143628
 Sum of Mulliken atomic charges =  -0.00000

 Dipole moment (field-independent basis, Debye):
    X=              0.0012    Y=             -0.0067    Z=              0.0047  Tot=              0.0083
 Quadrupole moment (field-independent basis, Debye-Ang):
   XX=            -15.5835   YY=            -15.5826   ZZ=            -15.4874
   XY=             -0.0102   XZ=             -0.0388   YZ=              0.0182

 Optimization completed.
    -- Stationary point found.
 Normal termination of Gaussian 09 at Thu May 27 13:51:42 2021.
