 Gaussian 09, Revision A.02,
 Gaussian 09:  EM64L-G09RevA.02 11-Jun-2009

 --------------------------------
 #p b3lyp/6-31+g(d,p) force nosym
 --------------------------------

 -------------
 c2h6 molecule
 -------------
 Symbolic Z-matrix:
 Charge =  0 Multiplicity = 1

                          Input orientation:
 ---------------------------------------------------------------------
 Center     Atomic      Atomic             Coordinates (Angstroms)
 Number     Number       Type             X           Y           Z
 ---------------------------------------------------------------------
      1          6           0        0.000000    0.000000    0.000000
      2          6           0        0.000000    0.000000    3.632008
      3          1           0        1.087693    0.000000   -0.374549
      4          1           0       -0.535066   -0.926760   -0.389518
      5          1           0       -0.532182    0.921765   -0.366514
      6          1           0       -1.087515    0.000000    4.006495
      7          1           0        0.538562   -0.932815    4.002915
      8          1           0        0.531646    0.920837    3.998152
 ---------------------------------------------------------------------

 SCF Done:  E(RB3LYP) =  -79.6263136116     A.U. after   12 cycles

 Alpha  occ. eigenvalues --  -10.23905 -10.23808  -0.67237  -0.66979  -0.40358
 Alpha  occ. eigenvalues --   -0.40196  -0.40017  -0.39850  -0.21709
 Alpha virt. eigenvalues --   -0.14991   0.01146   0.02923   0.05557   0.05579
 Alpha virt. eigenvalues --    0.07836   0.07855   0.10669   0.11846   0.16038
 Alpha virt. eigenvalues --    0.16407   0.18039   0.18434   0.22784   0.29545

 Mulliken atomic charges:
              1
     1  C   -0.471605
     2  C   -0.468710
     3  H    0.154891
     4  H    0.156000
     5  H    0.158223
     6  H    0.155433
     7  H    0.156973
     8  H    0.158794
 Sum of Mulliken atomic charges =  -0.00000

 Dipole moment (field-independent basis, Debye):
    X=              0.0046    Y=              0.0218    Z=              0.0301  Tot=              0.0374
 Quadrupole moment (field-independent basis, Debye-Ang):
   XX=            -15.7169   YY=            -15.7547   ZZ=            -10.9469
   XY=             -0.0120   XZ=              0.0434   YZ=              0.0449

 Optimization completed.
    -- Stationary point found.
 Normal termination of Gaussian 09 at Thu May 27 13:49:44 2021.
