 Gaussian 09, Revision A.02,
 Gaussian 09:  EM64L-G09RevA.02 11-Jun-2009

 --------------------------------
 #p b3lyp/6-31+g(d,p) force nosym
 --------------------------------

 -------------
 c2h6 molecule
 -------------
 Symbolic Z-matrix:
 Charge =  0 Multiplicity = 1

                          Input orientation:
 ---------------------------------------------------------------------
 Center     Atomic      Atomic             Coordinates (Angstroms)
 Number     Number       Type             X           Y           Z
 ---------------------------------------------------------------------
      1          6           0        0.000000    0.000000    0.000000
      2          6           0        0.000000    0.000000    1.783774
      3          1           0        1.103696    0.000000   -0.379811
      4          1           0       -0.549813   -0.952303   -0.399996
      5          1           0       -0.553963    0.959502   -0.381268
      6          1           0       -1.103380    0.000000    2.163482
      7          1           0        0.553360   -0.958446    2.164629
      8          1           0        0.553622    0.958899    2.164808
 ---------------------------------------------------------------------

 SCF Done:  E(RB3LYP) =  -79.8021295673     A.U. after    9 cycles

 Alpha  occ. eigenvalues --  -10.21685 -10.21653  -0.70298  -0.60936  -0.40999
 Alpha  occ. eigenvalues --   -0.40910  -0.35315  -0.35251  -0.32587
 Alpha virt. eigenvalues --    0.01303   0.01769   0.05519   0.05533   0.07908
 Alpha virt. eigenvalues --    0.08553   0.08557   0.12560   0.15529   0.17097
 Alpha virt. eigenvalues --    0.17262   0.17271   0.17335   0.27009   0.28434

 Mulliken atomic charges:
              1
     1  C   -0.432928
     2  C   -0.432265
     3  H    0.144438
     4  H    0.143861
     5  H    0.143615
     6  H    0.144863
     7  H    0.144197
     8  H    0.144220
 Sum of Mulliken atomic charges =  -0.00000

 Dipole moment (field-independent basis, Debye):
    X=              0.0005    Y=             -0.0005    Z=              0.0025  Tot=              0.0026
 Quadrupole moment (field-independent basis, Debye-Ang):
   XX=            -15.3946   YY=            -15.4034   ZZ=            -16.1498
   XY=             -0.0085   XZ=              0.0072   YZ=              0.0238

 Optimization completed.
    -- Stationary point found.
 Normal termination of Gaussian 09 at Thu May 27 13:53:14 2021.
