 Gaussian 09, Revision A.02,
 Gaussian 09:  EM64L-G09RevA.02 11-Jun-2009

 --------------------------------
 #p b3lyp/6-31+g(d,p) force nosym
 --------------------------------

 -------------
 c2h6 molecule
 -------------
 Symbolic Z-matrix:
 Charge =  0 Multiplicity = 1

                          Input orientation:
 ---------------------------------------------------------------------
 Center     Atomic      Atomic             Coordinates (Angstroms)
 Number     Number       Type             X           Y           Z
 ---------------------------------------------------------------------
      1          6           0        0.000000    0.000000    0.000000
      2          6           0        0.000000    0.000000    1.547725
      3          1           0        1.044563    0.000000   -0.359949
      4          1           0       -0.518135   -0.897434   -0.377448
      5          1           0       -0.520801    0.902048   -0.358925
      6          1           0       -1.044126    0.000000    1.907520
      7          1           0        0.520948   -0.902308    1.906750
      8          1           0        0.520648    0.901789    1.906543
 ---------------------------------------------------------------------

 SCF Done:  E(RB3LYP) =  -79.8401834260     A.U. after    9 cycles

 Alpha  occ. eigenvalues --  -10.18055 -10.18035  -0.75092  -0.61061  -0.43736
 Alpha  occ. eigenvalues --   -0.43672  -0.35627  -0.34648  -0.34608
 Alpha virt. eigenvalues --    0.01699   0.03144   0.05249   0.05264   0.07906
 Alpha virt. eigenvalues --    0.08947   0.08953   0.14137   0.18747   0.18843
 Alpha virt. eigenvalues --    0.20091   0.20208   0.24448   0.29151   0.32434

 Mulliken atomic charges:
              1
     1  C   -0.433395
     2  C   -0.434008
     3  H    0.144060
     4  H    0.144573
     5  H    0.144604
     6  H    0.144330
     7  H    0.144758
     8  H    0.145079
 Sum of Mulliken atomic charges =  -0.00000

 Dipole moment (field-independent basis, Debye):
    X=              0.0001    Y=              0.0012    Z=             -0.0011  Tot=              0.0016
 Quadrupole moment (field-independent basis, Debye-Ang):
   XX=            -14.9807   YY=            -14.9895   ZZ=            -16.2603
   XY=             -0.0072   XZ=              0.0178   YZ=              0.0240

 Optimization completed.
    -- Stationary point found.
 Normal termination of Gaussian 09 at Thu May 27 13:53:29 2021.
