 Gaussian 09, Revision A.02,
 Gaussian 09:  EM64L-G09RevA.02 11-Jun-2009

 --------------------------------
 #p b3lyp/6-31+g(d,p) force nosym
 --------------------------------

 -------------
 c2h6 molecule
 -------------
 Symbolic Z-matrix:
 Charge =  0 Multiplicity = 1

                          Input orientation:
 ---------------------------------------------------------------------
 Center     Atomic      Atomic             Coordinates (Angstroms)
 Number     Number       Type             X           Y           Z
 ---------------------------------------------------------------------
      1          6           0        0.000000    0.000000    0.000000
      2          6           0        0.000000    0.000000    3.595472
      3          1           0        1.033709    0.000000   -0.355950
      4          1           0       -0.512871   -0.888318   -0.373351
      5          1           0       -0.515151    0.892268   -0.354775
      6          1           0       -1.033370    0.000000    3.951305
      7          1           0        0.515747   -0.893299    3.950657
      8          1           0        0.515017    0.892035    3.950154
 ---------------------------------------------------------------------

 SCF Done:  E(RB3LYP) =  -79.6359509427     A.U. after   11 cycles

 Alpha  occ. eigenvalues --  -10.22562 -10.22470  -0.68545  -0.68291  -0.41089
 Alpha  occ. eigenvalues --   -0.41058  -0.40906  -0.40815  -0.21716
 Alpha virt. eigenvalues --   -0.14717   0.01367   0.03107   0.05536   0.05542
 Alpha virt. eigenvalues --    0.07974   0.07982   0.10875   0.12453   0.17782
 Alpha virt. eigenvalues --    0.17845   0.19766   0.19821   0.24655   0.31187

 Mulliken atomic charges:
              1
     1  C   -0.478347
     2  C   -0.475391
     3  H    0.158598
     4  H    0.158305
     5  H    0.159025
     6  H    0.159075
     7  H    0.159313
     8  H    0.159421
 Sum of Mulliken atomic charges =  -0.00000

 Dipole moment (field-independent basis, Debye):
    X=              0.0047    Y=              0.0095    Z=              0.0278  Tot=              0.0297
 Quadrupole moment (field-independent basis, Debye-Ang):
   XX=            -15.5882   YY=            -15.6047   ZZ=            -10.6597
   XY=             -0.0107   XZ=              0.0147   YZ=              0.0212

 Optimization completed.
    -- Stationary point found.
 Normal termination of Gaussian 09 at Thu May 27 13:50:31 2021.
