 Gaussian 09, Revision A.02,
 Gaussian 09:  EM64L-G09RevA.02 11-Jun-2009

 --------------------------------
 #p b3lyp/6-31+g(d,p) force nosym
 --------------------------------

 -------------
 c2h6 molecule
 -------------
 Symbolic Z-matrix:
 Charge =  0 Multiplicity = 1

                          Input orientation:
 ---------------------------------------------------------------------
 Center     Atomic      Atomic             Coordinates (Angstroms)
 Number     Number       Type             X           Y           Z
 ---------------------------------------------------------------------
      1          6           0        0.000000    0.000000    0.000000
      2          6           0        0.000000    0.000000    1.523519
      3          1           0        1.018785    0.000000   -0.392481
      4          1           0       -0.507168   -0.878418   -0.398509
      5          1           0       -0.509077    0.887836   -0.394280
      6          1           0       -1.020573    0.000000    1.918644
      7          1           0        0.507408   -0.878854    1.916473
      8          1           0        0.512144    0.887060    1.917768
 ---------------------------------------------------------------------

 SCF Done:  E(RB3LYP) =  -79.8415124965     A.U. after    9 cycles

 Alpha  occ. eigenvalues --  -10.17650 -10.17618  -0.75525  -0.61675  -0.43647
 Alpha  occ. eigenvalues --   -0.43625  -0.36888  -0.34437  -0.34417
 Alpha virt. eigenvalues --    0.01759   0.03080   0.05344   0.05347   0.08032
 Alpha virt. eigenvalues --    0.08980   0.08982   0.14306   0.19548   0.19587
 Alpha virt. eigenvalues --    0.19956   0.19990   0.25816   0.29801   0.32869

 Mulliken atomic charges:
              1
     1  C   -0.433903
     2  C   -0.433929
     3  H    0.144769
     4  H    0.145105
     5  H    0.144082
     6  H    0.144473
     7  H    0.145360
     8  H    0.144044
 Sum of Mulliken atomic charges =   0.00000

 Dipole moment (field-independent basis, Debye):
    X=              0.0033    Y=             -0.0098    Z=             -0.0013  Tot=              0.0104
 Quadrupole moment (field-independent basis, Debye-Ang):
   XX=            -15.0489   YY=            -15.0429   ZZ=            -15.8085
   XY=              0.0005   XZ=              0.0042   YZ=             -0.0043

 Optimization completed.
    -- Stationary point found.
 Normal termination of Gaussian 09 at Thu May 27 13:55:33 2021.
