 Gaussian 09, Revision A.02,
 Gaussian 09:  EM64L-G09RevA.02 11-Jun-2009

 --------------------------------
 #p b3lyp/6-31+g(d,p) force nosym
 --------------------------------

 -------------
 c2h6 molecule
 -------------
 Symbolic Z-matrix:
 Charge =  0 Multiplicity = 1

                          Input orientation:
 ---------------------------------------------------------------------
 Center     Atomic      Atomic             Coordinates (Angstroms)
 Number     Number       Type             X           Y           Z
 ---------------------------------------------------------------------
      1          6           0        0.000000    0.000000    0.000000
      2          6           0        0.000000    0.000000    1.000000
      3          1           0        0.973884    0.000000   -0.335335
      4          1           0       -0.493339   -0.854488   -0.359121
      5          1           0       -0.520035    0.900727   -0.358125
      6          1           0       -0.973884    0.000000    1.335335
      7          1           0        0.496397   -0.859785    1.341847
      8          1           0        0.520035    0.900727    1.358125
 ---------------------------------------------------------------------

 SCF Done:  E(RB3LYP) =  -79.3934926527     A.U. after   10 cycles

 Alpha  occ. eigenvalues --  -10.14679 -10.13308  -0.91051  -0.57337  -0.55295
 Alpha  occ. eigenvalues --   -0.54685  -0.42984  -0.28478  -0.28004
 Alpha virt. eigenvalues --    0.01791   0.03016   0.03208   0.04245   0.07698
 Alpha virt. eigenvalues --    0.09429   0.09458   0.15457   0.19363   0.19614
 Alpha virt. eigenvalues --    0.20915   0.22060   0.28620   0.32477   0.42789

 Mulliken atomic charges:
              1
     1  C   -0.313905
     2  C   -0.320869
     3  H    0.111167
     4  H    0.107827
     5  H    0.097890
     6  H    0.111370
     7  H    0.107265
     8  H    0.099255
 Sum of Mulliken atomic charges =  -0.00000

 Dipole moment (field-independent basis, Debye):
    X=              0.0024    Y=             -0.1199    Z=              0.0005  Tot=              0.1199
 Quadrupole moment (field-independent basis, Debye-Ang):
   XX=            -14.2609   YY=            -14.3275   ZZ=            -17.0573
   XY=             -0.0013   XZ=             -0.1009   YZ=             -0.0337

 Optimization completed.
    -- Stationary point found.
 Normal termination of Gaussian 09 at Thu May 27 13:49:27 2021.
