 Gaussian 09, Revision A.02,
 Gaussian 09:  EM64L-G09RevA.02 11-Jun-2009

 --------------------------------
 #p b3lyp/6-31+g(d,p) force nosym
 --------------------------------

 -------------
 c2h6 molecule
 -------------
 Symbolic Z-matrix:
 Charge =  0 Multiplicity = 1

                          Input orientation:
 ---------------------------------------------------------------------
 Center     Atomic      Atomic             Coordinates (Angstroms)
 Number     Number       Type             X           Y           Z
 ---------------------------------------------------------------------
      1          6           0        0.000000    0.000000    0.000000
      2          6           0        0.000000    0.000000    1.546774
      3          1           0        1.034453    0.000000   -0.356532
      4          1           0       -0.514073   -0.890400   -0.374553
      5          1           0       -0.517394    0.896147   -0.356644
      6          1           0       -1.034355    0.000000    1.903267
      7          1           0        0.517245   -0.895893    1.903312
      8          1           0        0.517173    0.895770    1.903262
 ---------------------------------------------------------------------

 SCF Done:  E(RB3LYP) =  -79.8404587787     A.U. after    9 cycles

 Alpha  occ. eigenvalues --  -10.17748 -10.17722  -0.75254  -0.61306  -0.43881
 Alpha  occ. eigenvalues --   -0.43812  -0.35625  -0.34769  -0.34734
 Alpha virt. eigenvalues --    0.01742   0.03171   0.05277   0.05291   0.07953
 Alpha virt. eigenvalues --    0.08964   0.08970   0.14226   0.18962   0.19036
 Alpha virt. eigenvalues --    0.20444   0.20570   0.24528   0.29412   0.32788

 Mulliken atomic charges:
              1
     1  C   -0.434975
     2  C   -0.435542
     3  H    0.144929
     4  H    0.145058
     5  H    0.144879
     6  H    0.145145
     7  H    0.145125
     8  H    0.145381
 Sum of Mulliken atomic charges =  -0.00000

 Dipole moment (field-independent basis, Debye):
    X=              0.0001    Y=             -0.0000    Z=             -0.0018  Tot=              0.0018
 Quadrupole moment (field-independent basis, Debye-Ang):
   XX=            -14.9418   YY=            -14.9501   ZZ=            -16.1988
   XY=             -0.0072   XZ=              0.0133   YZ=              0.0234

 Optimization completed.
    -- Stationary point found.
 Normal termination of Gaussian 09 at Thu May 27 13:54:06 2021.
