 Gaussian 09, Revision A.02,
 Gaussian 09:  EM64L-G09RevA.02 11-Jun-2009

 --------------------------------
 #p b3lyp/6-31+g(d,p) force nosym
 --------------------------------

 -------------
 c2h6 molecule
 -------------
 Symbolic Z-matrix:
 Charge =  0 Multiplicity = 1

                          Input orientation:
 ---------------------------------------------------------------------
 Center     Atomic      Atomic             Coordinates (Angstroms)
 Number     Number       Type             X           Y           Z
 ---------------------------------------------------------------------
      1          6           0        0.000000    0.000000    0.000000
      2          6           0        0.000000    0.000000    1.000000
      3          1           0        1.046297    0.000000   -0.360130
      4          1           0       -0.523786   -0.907223   -0.381137
      5          1           0       -0.529131    0.916487   -0.364249
      6          1           0       -1.046549    0.000000    1.360220
      7          1           0        0.528171   -0.914818    1.363589
      8          1           0        0.529041    0.916326    1.364188
 ---------------------------------------------------------------------

 SCF Done:  E(RB3LYP) =  -79.4096252429     A.U. after   10 cycles

 Alpha  occ. eigenvalues --  -10.16554 -10.15186  -0.90449  -0.55592  -0.54182
 Alpha  occ. eigenvalues --   -0.53958  -0.42991  -0.27828  -0.27727
 Alpha virt. eigenvalues --    0.01514   0.02511   0.02574   0.04149   0.07391
 Alpha virt. eigenvalues --    0.09320   0.09336   0.15071   0.18870   0.18925
 Alpha virt. eigenvalues --    0.19063   0.19336   0.27223   0.29718   0.42999

 Mulliken atomic charges:
              1
     1  C   -0.311279
     2  C   -0.318830
     3  H    0.106220
     4  H    0.105173
     5  H    0.103407
     6  H    0.106362
     7  H    0.104056
     8  H    0.104892
 Sum of Mulliken atomic charges =   0.00000

 Dipole moment (field-independent basis, Debye):
    X=              0.0007    Y=             -0.0049    Z=             -0.0018  Tot=              0.0052
 Quadrupole moment (field-independent basis, Debye-Ang):
   XX=            -14.5545   YY=            -14.5744   ZZ=            -17.4473
   XY=             -0.0001   XZ=             -0.0139   YZ=              0.0278

 Optimization completed.
    -- Stationary point found.
 Normal termination of Gaussian 09 at Thu May 27 13:52:37 2021.
