 Gaussian 09, Revision A.02,
 Gaussian 09:  EM64L-G09RevA.02 11-Jun-2009

 --------------------------------
 #p b3lyp/6-31+g(d,p) force nosym
 --------------------------------

 -------------
 c2h6 molecule
 -------------
 Symbolic Z-matrix:
 Charge =  0 Multiplicity = 1

                          Input orientation:
 ---------------------------------------------------------------------
 Center     Atomic      Atomic             Coordinates (Angstroms)
 Number     Number       Type             X           Y           Z
 ---------------------------------------------------------------------
      1          6           0        0.000000    0.000000    0.000000
      2          6           0        0.000000    0.000000    1.546909
      3          1           0        1.034655    0.000000   -0.356596
      4          1           0       -0.514106   -0.890456   -0.374572
      5          1           0       -0.517393    0.896144   -0.356637
      6          1           0       -1.034348    0.000000    1.903394
      7          1           0        0.517251   -0.895904    1.903446
      8          1           0        0.517171    0.895766    1.903390
 ---------------------------------------------------------------------

 SCF Done:  E(RB3LYP) =  -79.8404585586     A.U. after    9 cycles

 Alpha  occ. eigenvalues --  -10.17750 -10.17725  -0.75251  -0.61305  -0.43879
 Alpha  occ. eigenvalues --   -0.43810  -0.35623  -0.34769  -0.34735
 Alpha virt. eigenvalues --    0.01742   0.03170   0.05277   0.05291   0.07953
 Alpha virt. eigenvalues --    0.08964   0.08970   0.14226   0.18961   0.19036
 Alpha virt. eigenvalues --    0.20442   0.20567   0.24523   0.29411   0.32784

 Mulliken atomic charges:
              1
     1  C   -0.434973
     2  C   -0.435552
     3  H    0.144906
     4  H    0.145058
     5  H    0.144890
     6  H    0.145152
     7  H    0.145131
     8  H    0.145388
 Sum of Mulliken atomic charges =  -0.00000

 Dipole moment (field-independent basis, Debye):
    X=              0.0000    Y=              0.0000    Z=             -0.0016  Tot=              0.0016
 Quadrupole moment (field-independent basis, Debye-Ang):
   XX=            -14.9421   YY=            -14.9504   ZZ=            -16.1987
   XY=             -0.0072   XZ=              0.0133   YZ=              0.0234

 Optimization completed.
    -- Stationary point found.
 Normal termination of Gaussian 09 at Thu May 27 13:53:58 2021.
