 Gaussian 09, Revision A.02,
 Gaussian 09:  EM64L-G09RevA.02 11-Jun-2009

 --------------------------------
 #p b3lyp/6-31+g(d,p) force nosym
 --------------------------------

 -------------
 c2h6 molecule
 -------------
 Symbolic Z-matrix:
 Charge =  0 Multiplicity = 1

                          Input orientation:
 ---------------------------------------------------------------------
 Center     Atomic      Atomic             Coordinates (Angstroms)
 Number     Number       Type             X           Y           Z
 ---------------------------------------------------------------------
      1          6           0        0.000000    0.000000    0.000000
      2          6           0        0.000000    0.000000    1.343581
      3          1           0        1.059467    0.000000   -0.364951
      4          1           0       -0.533648   -0.924304   -0.388610
      5          1           0       -0.541476    0.937861   -0.373038
      6          1           0       -1.059866    0.000000    1.708667
      7          1           0        0.539461   -0.934373    1.715229
      8          1           0        0.541215    0.937411    1.716437
 ---------------------------------------------------------------------

 SCF Done:  E(RB3LYP) =  -79.8072791355     A.U. after    9 cycles

 Alpha  occ. eigenvalues --  -10.17751 -10.17649  -0.79510  -0.58434  -0.45914
 Alpha  occ. eigenvalues --   -0.45579  -0.38550  -0.32348  -0.32076
 Alpha virt. eigenvalues --    0.01520   0.03582   0.04408   0.04461   0.07487
 Alpha virt. eigenvalues --    0.09103   0.09120   0.14233   0.17870   0.18122
 Alpha virt. eigenvalues --    0.18741   0.19313   0.27783   0.27995   0.36288

 Mulliken atomic charges:
              1
     1  C   -0.400608
     2  C   -0.401844
     3  H    0.136260
     4  H    0.133636
     5  H    0.131453
     6  H    0.136356
     7  H    0.132366
     8  H    0.132382
 Sum of Mulliken atomic charges =   0.00000

 Dipole moment (field-independent basis, Debye):
    X=             -0.0016    Y=             -0.0107    Z=             -0.0056  Tot=              0.0121
 Quadrupole moment (field-independent basis, Debye-Ang):
   XX=            -14.9633   YY=            -14.9763   ZZ=            -16.9319
   XY=             -0.0047   XZ=             -0.0254   YZ=              0.0243

 Optimization completed.
    -- Stationary point found.
 Normal termination of Gaussian 09 at Thu May 27 13:53:07 2021.
