 Gaussian 09, Revision A.02,
 Gaussian 09:  EM64L-G09RevA.02 11-Jun-2009

 --------------------------------
 #p b3lyp/6-31+g(d,p) force nosym
 --------------------------------

 -------------
 c2h6 molecule
 -------------
 Symbolic Z-matrix:
 Charge =  0 Multiplicity = 1

                          Input orientation:
 ---------------------------------------------------------------------
 Center     Atomic      Atomic             Coordinates (Angstroms)
 Number     Number       Type             X           Y           Z
 ---------------------------------------------------------------------
      1          6           0        0.000000    0.000000    0.000000
      2          6           0        0.000000    0.000000    1.537972
      3          1           0        1.028890    0.000000   -0.357961
      4          1           0       -0.512191   -0.887138   -0.375539
      5          1           0       -0.517081    0.896103   -0.359943
      6          1           0       -1.033666    0.000000    1.897747
      7          1           0        0.514920   -0.891867    1.896419
      8          1           0        0.517486    0.896312    1.898015
 ---------------------------------------------------------------------

 SCF Done:  E(RB3LYP) =  -79.8405587785     A.U. after    9 cycles

 Alpha  occ. eigenvalues --  -10.17667 -10.17595  -0.75430  -0.61319  -0.43958
 Alpha  occ. eigenvalues --   -0.43878  -0.35817  -0.34711  -0.34668
 Alpha virt. eigenvalues --    0.01751   0.03189   0.05271   0.05284   0.07957
 Alpha virt. eigenvalues --    0.08975   0.08981   0.14262   0.19040   0.19095
 Alpha virt. eigenvalues --    0.20459   0.20603   0.24890   0.29477   0.32920

 Mulliken atomic charges:
              1
     1  C   -0.434537
     2  C   -0.434870
     3  H    0.145218
     4  H    0.145083
     5  H    0.144343
     6  H    0.144739
     7  H    0.145288
     8  H    0.144735
 Sum of Mulliken atomic charges =  -0.00000

 Dipole moment (field-independent basis, Debye):
    X=              0.0039    Y=             -0.0060    Z=             -0.0044  Tot=              0.0084
 Quadrupole moment (field-independent basis, Debye-Ang):
   XX=            -14.9391   YY=            -14.9460   ZZ=            -16.1772
   XY=             -0.0065   XZ=              0.0134   YZ=              0.0164

 Optimization completed.
    -- Stationary point found.
 Normal termination of Gaussian 09 at Thu May 27 13:55:19 2021.
