 Gaussian 09, Revision A.02,
 Gaussian 09:  EM64L-G09RevA.02 11-Jun-2009

 --------------------------------
 #p b3lyp/6-31+g(d,p) force nosym
 --------------------------------

 -------------
 c2h6 molecule
 -------------
 Symbolic Z-matrix:
 Charge =  0 Multiplicity = 1

                          Input orientation:
 ---------------------------------------------------------------------
 Center     Atomic      Atomic             Coordinates (Angstroms)
 Number     Number       Type             X           Y           Z
 ---------------------------------------------------------------------
      1          6           0        0.000000    0.000000    0.000000
      2          6           0        0.000000    0.000000    1.545315
      3          1           0        1.031761    0.000000   -0.355928
      4          1           0       -0.513958   -0.890201   -0.374698
      5          1           0       -0.517152    0.895776   -0.356817
      6          1           0       -1.034336    0.000000    1.902142
      7          1           0        0.517539   -0.896403    1.902397
      8          1           0        0.516954    0.895391    1.901975
 ---------------------------------------------------------------------

 SCF Done:  E(RB3LYP) =  -79.8404681431     A.U. after    9 cycles

 Alpha  occ. eigenvalues --  -10.17738 -10.17681  -0.75288  -0.61311  -0.43902
 Alpha  occ. eigenvalues --   -0.43826  -0.35651  -0.34768  -0.34724
 Alpha virt. eigenvalues --    0.01745   0.03175   0.05276   0.05290   0.07954
 Alpha virt. eigenvalues --    0.08967   0.08972   0.14234   0.18976   0.19050
 Alpha virt. eigenvalues --    0.20454   0.20593   0.24586   0.29427   0.32820

 Mulliken atomic charges:
              1
     1  C   -0.435003
     2  C   -0.435412
     3  H    0.145240
     4  H    0.144973
     5  H    0.144811
     6  H    0.145092
     7  H    0.144938
     8  H    0.145361
 Sum of Mulliken atomic charges =  -0.00000

 Dipole moment (field-independent basis, Debye):
    X=              0.0019    Y=              0.0008    Z=             -0.0037  Tot=              0.0042
 Quadrupole moment (field-independent basis, Debye-Ang):
   XX=            -14.9398   YY=            -14.9477   ZZ=            -16.1982
   XY=             -0.0072   XZ=              0.0125   YZ=              0.0245

 Optimization completed.
    -- Stationary point found.
 Normal termination of Gaussian 09 at Thu May 27 13:54:28 2021.
