 Gaussian 09, Revision A.02,
 Gaussian 09:  EM64L-G09RevA.02 11-Jun-2009

 --------------------------------
 #p b3lyp/6-31+g(d,p) force nosym
 --------------------------------

 -------------
 c2h6 molecule
 -------------
 Symbolic Z-matrix:
 Charge =  0 Multiplicity = 1

                          Input orientation:
 ---------------------------------------------------------------------
 Center     Atomic      Atomic             Coordinates (Angstroms)
 Number     Number       Type             X           Y           Z
 ---------------------------------------------------------------------
      1          6           0        0.000000    0.000000    0.000000
      2          6           0        0.000000    0.000000    1.599130
      3          1           0        1.120185    0.000000   -0.385141
      4          1           0       -0.569668   -0.986694   -0.414082
      5          1           0       -0.579679    1.004052   -0.398614
      6          1           0       -1.121792    0.000000    1.984836
      7          1           0        0.576760   -0.998977    1.995742
      8          1           0        0.579621    1.003933    1.997709
 ---------------------------------------------------------------------

 SCF Done:  E(RB3LYP) =  -79.7985678908     A.U. after    9 cycles

 Alpha  occ. eigenvalues --  -10.21968 -10.21864  -0.72579  -0.58626  -0.41931
 Alpha  occ. eigenvalues --   -0.41445  -0.35114  -0.33745  -0.33288
 Alpha virt. eigenvalues --    0.00949   0.02504   0.04858   0.04936   0.07425
 Alpha virt. eigenvalues --    0.08679   0.08692   0.12528   0.15512   0.15939
 Alpha virt. eigenvalues --    0.16381   0.16508   0.22127   0.25798   0.27873

 Mulliken atomic charges:
              1
     1  C   -0.409292
     2  C   -0.407999
     3  H    0.140841
     4  H    0.135399
     5  H    0.132628
     6  H    0.140900
     7  H    0.134074
     8  H    0.133448
 Sum of Mulliken atomic charges =  -0.00000

 Dipole moment (field-independent basis, Debye):
    X=             -0.0016    Y=             -0.0156    Z=             -0.0051  Tot=              0.0165
 Quadrupole moment (field-independent basis, Debye-Ang):
   XX=            -15.4484   YY=            -15.4614   ZZ=            -16.9082
   XY=             -0.0065   XZ=             -0.0551   YZ=              0.0218

 Optimization completed.
    -- Stationary point found.
 Normal termination of Gaussian 09 at Thu May 27 13:52:45 2021.
