 Gaussian 09, Revision A.02,
 Gaussian 09:  EM64L-G09RevA.02 11-Jun-2009

 --------------------------------
 #p b3lyp/6-31+g(d,p) force nosym
 --------------------------------

 -------------
 c2h6 molecule
 -------------
 Symbolic Z-matrix:
 Charge =  0 Multiplicity = 1

                          Input orientation:
 ---------------------------------------------------------------------
 Center     Atomic      Atomic             Coordinates (Angstroms)
 Number     Number       Type             X           Y           Z
 ---------------------------------------------------------------------
      1          6           0        0.000000    0.000000    0.000000
      2          6           0        0.000000    0.000000    1.547546
      3          1           0        1.035767    0.000000   -0.356970
      4          1           0       -0.514297   -0.890787   -0.374705
      5          1           0       -0.517369    0.896102   -0.356612
      6          1           0       -1.035448    0.000000    1.904401
      7          1           0        0.517292   -0.895976    1.904102
      8          1           0        0.517151    0.895731    1.904004
 ---------------------------------------------------------------------

 SCF Done:  E(RB3LYP) =  -79.8404565798     A.U. after    9 cycles

 Alpha  occ. eigenvalues --  -10.17769 -10.17747  -0.75231  -0.61297  -0.43863
 Alpha  occ. eigenvalues --   -0.43800  -0.35616  -0.34766  -0.34734
 Alpha virt. eigenvalues --    0.01740   0.03167   0.05277   0.05292   0.07951
 Alpha virt. eigenvalues --    0.08963   0.08968   0.14220   0.18948   0.19029
 Alpha virt. eigenvalues --    0.20426   0.20544   0.24498   0.29398   0.32760

 Mulliken atomic charges:
              1
     1  C   -0.434943
     2  C   -0.435535
     3  H    0.144777
     4  H    0.145066
     5  H    0.144968
     6  H    0.145022
     7  H    0.145187
     8  H    0.145457
 Sum of Mulliken atomic charges =  -0.00000

 Dipole moment (field-independent basis, Debye):
    X=              0.0001    Y=              0.0004    Z=             -0.0015  Tot=              0.0015
 Quadrupole moment (field-independent basis, Debye-Ang):
   XX=            -14.9444   YY=            -14.9530   ZZ=            -16.2004
   XY=             -0.0072   XZ=              0.0150   YZ=              0.0235

 Optimization completed.
    -- Stationary point found.
 Normal termination of Gaussian 09 at Thu May 27 13:53:36 2021.
